
     Program PWSCF v.6.4.1 starts on 12Aug2019 at 16:57:31 

     This program is part of the open-source Quantum ESPRESSO suite
     for quantum simulation of materials; please cite
         "P. Giannozzi et al., J. Phys.:Condens. Matter 21 395502 (2009);
         "P. Giannozzi et al., J. Phys.:Condens. Matter 29 465901 (2017);
          URL http://www.quantum-espresso.org", 
     in publications or presentations arising from this work. More details at
     http://www.quantum-espresso.org/quote

     Parallel version (MPI), running on     8 processors

     MPI processes distributed on     1 nodes
     R & G space division:  proc/nbgrp/npool/nimage =       8
     Waiting for input...
     Reading input from standard input

     Current dimensions of program PWSCF are:
     Max number of different atomic species (ntypx) = 10
     Max number of k-points (npk) =  40000
     Max angular momentum in pseudopotentials (lmaxx) =  3

     Subspace diagonalization in iterative solution of the eigenvalue problem:
     a serial algorithm will be used

     Found symmetry operation: I + (  0.0000  0.0000  0.5000)
     This is a supercell, fractional translations are disabled
     Message from routine setup:
     DEPRECATED: symmetry with ibrav=0, use correct ibrav instead

     Parallelization info
     --------------------
     sticks:   dense  smooth     PW     G-vecs:    dense   smooth      PW
     Min         920     366    102                52137    13173    1934
     Max         921     367    104                52138    13175    1935
     Sum        7363    2929    823               417097   105395   15473



     bravais-lattice index     =            0
     lattice parameter (alat)  =      14.5131  a.u.
     unit-cell volume          =    2208.2871 (a.u.)^3
     number of atoms/cell      =           16
     number of atomic types    =            1
     number of electrons       =        64.00
     number of Kohn-Sham states=           65
     kinetic-energy cutoff     =      50.0000  Ry
     charge density cutoff     =     500.0000  Ry
     convergence threshold     =      1.0E-10
     mixing beta               =       0.7000
     number of iterations used =            8  plain     mixing
     Exchange-correlation      = PBE ( 1  4  3  4 0 0)

     celldm(1)=  14.513150  celldm(2)=   0.000000  celldm(3)=   0.000000
     celldm(4)=   0.000000  celldm(5)=   0.000000  celldm(6)=   0.000000

     crystal axes: (cart. coord. in units of alat)
               a(1) = (  -0.000000   0.712164   0.712164 )  
               a(2) = (   0.712164  -0.000000   0.712164 )  
               a(3) = (   0.712164   0.712164  -0.000000 )  

     reciprocal axes: (cart. coord. in units 2 pi/alat)
               b(1) = ( -0.702085  0.702085  0.702085 )  
               b(2) = (  0.702085 -0.702085  0.702085 )  
               b(3) = (  0.702085  0.702085 -0.702085 )  


     PseudoPot. # 1 for Si read from file:
     ./Si.pbe-n-rrkjus_psl.1.0.0.UPF
     MD5 check sum: fa25574f73a70a4139f2adfbefec430c
     Pseudo is Ultrasoft + core correction, Zval =  4.0
     Generated using "atomic" code by A. Dal Corso v.6.3
     Using radial grid of 1141 points,  6 beta functions with: 
                l(1) =   0
                l(2) =   0
                l(3) =   1
                l(4) =   1
                l(5) =   2
                l(6) =   2
     Q(r) pseudized with 0 coefficients 


     atomic species   valence    mass     pseudopotential
        Si             4.00    28.08550     Si( 1.00)

     24 Sym. Ops. (no inversion) found


                                    s                        frac. trans.

      isym =  1     identity                                     

 cryst.   s( 1) = (     1          0          0      )
                  (     0          1          0      )
                  (     0          0          1      )

 cart.    s( 1) = (  1.0000000  0.0000000  0.0000000 )
                  (  0.0000000  1.0000000  0.0000000 )
                  (  0.0000000  0.0000000  1.0000000 )


      isym =  2     180 deg rotation - cart. axis [0,0,1]        

 cryst.   s( 2) = (     0          1         -1      )
                  (     1          0         -1      )
                  (     0          0         -1      )

 cart.    s( 2) = ( -1.0000000  0.0000000  0.0000000 )
                  (  0.0000000 -1.0000000  0.0000000 )
                  (  0.0000000  0.0000000  1.0000000 )


      isym =  3     180 deg rotation - cart. axis [0,1,0]        

 cryst.   s( 3) = (     0         -1          1      )
                  (     0         -1          0      )
                  (     1         -1          0      )

 cart.    s( 3) = ( -1.0000000  0.0000000  0.0000000 )
                  (  0.0000000  1.0000000  0.0000000 )
                  (  0.0000000  0.0000000 -1.0000000 )


      isym =  4     180 deg rotation - cart. axis [1,0,0]        

 cryst.   s( 4) = (    -1          0          0      )
                  (    -1          0          1      )
                  (    -1          1          0      )

 cart.    s( 4) = (  1.0000000  0.0000000  0.0000000 )
                  (  0.0000000 -1.0000000  0.0000000 )
                  (  0.0000000  0.0000000 -1.0000000 )


      isym =  5     120 deg rotation - cart. axis [-1,-1,-1]     

 cryst.   s( 5) = (     0          0          1      )
                  (     1          0          0      )
                  (     0          1          0      )

 cart.    s( 5) = (  0.0000000  1.0000000  0.0000000 )
                  (  0.0000000  0.0000000  1.0000000 )
                  (  1.0000000  0.0000000  0.0000000 )


      isym =  6     120 deg rotation - cart. axis [-1,1,1]       

 cryst.   s( 6) = (     1         -1          0      )
                  (     0         -1          1      )
                  (     0         -1          0      )

 cart.    s( 6) = (  0.0000000 -1.0000000  0.0000000 )
                  (  0.0000000  0.0000000  1.0000000 )
                  ( -1.0000000  0.0000000  0.0000000 )


      isym =  7     120 deg rotation - cart. axis [1,1,-1]       

 cryst.   s( 7) = (    -1          1          0      )
                  (    -1          0          0      )
                  (    -1          0          1      )

 cart.    s( 7) = (  0.0000000  1.0000000  0.0000000 )
                  (  0.0000000  0.0000000 -1.0000000 )
                  ( -1.0000000  0.0000000  0.0000000 )


      isym =  8     120 deg rotation - cart. axis [1,-1,1]       

 cryst.   s( 8) = (     0          0         -1      )
                  (     0          1         -1      )
                  (     1          0         -1      )

 cart.    s( 8) = (  0.0000000 -1.0000000  0.0000000 )
                  (  0.0000000  0.0000000 -1.0000000 )
                  (  1.0000000  0.0000000  0.0000000 )


      isym =  9     120 deg rotation - cart. axis [1,1,1]        

 cryst.   s( 9) = (     0          1          0      )
                  (     0          0          1      )
                  (     1          0          0      )

 cart.    s( 9) = (  0.0000000  0.0000000  1.0000000 )
                  (  1.0000000  0.0000000  0.0000000 )
                  (  0.0000000  1.0000000  0.0000000 )


      isym = 10     120 deg rotation - cart. axis [-1,1,-1]      

 cryst.   s(10) = (    -1          0          1      )
                  (    -1          1          0      )
                  (    -1          0          0      )

 cart.    s(10) = (  0.0000000  0.0000000  1.0000000 )
                  ( -1.0000000  0.0000000  0.0000000 )
                  (  0.0000000 -1.0000000  0.0000000 )


      isym = 11     120 deg rotation - cart. axis [1,-1,-1]      

 cryst.   s(11) = (     1          0         -1      )
                  (     0          0         -1      )
                  (     0          1         -1      )

 cart.    s(11) = (  0.0000000  0.0000000 -1.0000000 )
                  ( -1.0000000  0.0000000  0.0000000 )
                  (  0.0000000  1.0000000  0.0000000 )


      isym = 12     120 deg rotation - cart. axis [-1,-1,1]      

 cryst.   s(12) = (     0         -1          0      )
                  (     1         -1          0      )
                  (     0         -1          1      )

 cart.    s(12) = (  0.0000000  0.0000000 -1.0000000 )
                  (  1.0000000  0.0000000  0.0000000 )
                  (  0.0000000 -1.0000000  0.0000000 )


      isym = 13     inv. 180 deg rotation - cart. axis [1,1,0]   

 cryst.   s(13) = (     1          0         -1      )
                  (     0          1         -1      )
                  (     0          0         -1      )

 cart.    s(13) = (  0.0000000 -1.0000000  0.0000000 )
                  ( -1.0000000  0.0000000  0.0000000 )
                  (  0.0000000  0.0000000  1.0000000 )


      isym = 14     inv. 180 deg rotation - cart. axis [1,-1,0]  

 cryst.   s(14) = (     0          1          0      )
                  (     1          0          0      )
                  (     0          0          1      )

 cart.    s(14) = (  0.0000000  1.0000000  0.0000000 )
                  (  1.0000000  0.0000000  0.0000000 )
                  (  0.0000000  0.0000000  1.0000000 )


      isym = 15     inv.  90 deg rotation - cart. axis [0,0,-1]  

 cryst.   s(15) = (     0         -1          0      )
                  (     0         -1          1      )
                  (     1         -1          0      )

 cart.    s(15) = (  0.0000000 -1.0000000  0.0000000 )
                  (  1.0000000  0.0000000  0.0000000 )
                  (  0.0000000  0.0000000 -1.0000000 )


      isym = 16     inv.  90 deg rotation - cart. axis [0,0,1]   

 cryst.   s(16) = (    -1          0          1      )
                  (    -1          0          0      )
                  (    -1          1          0      )

 cart.    s(16) = (  0.0000000  1.0000000  0.0000000 )
                  ( -1.0000000  0.0000000  0.0000000 )
                  (  0.0000000  0.0000000 -1.0000000 )


      isym = 17     inv. 180 deg rotation - cart. axis [1,0,1]   

 cryst.   s(17) = (     1         -1          0      )
                  (     0         -1          0      )
                  (     0         -1          1      )

 cart.    s(17) = (  0.0000000  0.0000000 -1.0000000 )
                  (  0.0000000  1.0000000  0.0000000 )
                  ( -1.0000000  0.0000000  0.0000000 )


      isym = 18     inv. 180 deg rotation - cart. axis [-1,0,1]  

 cryst.   s(18) = (     0          0          1      )
                  (     0          1          0      )
                  (     1          0          0      )

 cart.    s(18) = (  0.0000000  0.0000000  1.0000000 )
                  (  0.0000000  1.0000000  0.0000000 )
                  (  1.0000000  0.0000000  0.0000000 )


      isym = 19     inv.  90 deg rotation - cart. axis [0,1,0]   

 cryst.   s(19) = (     0          0         -1      )
                  (     1          0         -1      )
                  (     0          1         -1      )

 cart.    s(19) = (  0.0000000  0.0000000 -1.0000000 )
                  (  0.0000000 -1.0000000  0.0000000 )
                  (  1.0000000  0.0000000  0.0000000 )


      isym = 20     inv.  90 deg rotation - cart. axis [0,-1,0]  

 cryst.   s(20) = (    -1          1          0      )
                  (    -1          0          1      )
                  (    -1          0          0      )

 cart.    s(20) = (  0.0000000  0.0000000  1.0000000 )
                  (  0.0000000 -1.0000000  0.0000000 )
                  ( -1.0000000  0.0000000  0.0000000 )


      isym = 21     inv. 180 deg rotation - cart. axis [0,1,1]   

 cryst.   s(21) = (    -1          0          0      )
                  (    -1          1          0      )
                  (    -1          0          1      )

 cart.    s(21) = (  1.0000000  0.0000000  0.0000000 )
                  (  0.0000000  0.0000000 -1.0000000 )
                  (  0.0000000 -1.0000000  0.0000000 )


      isym = 22     inv. 180 deg rotation - cart. axis [0,1,-1]  

 cryst.   s(22) = (     1          0          0      )
                  (     0          0          1      )
                  (     0          1          0      )

 cart.    s(22) = (  1.0000000  0.0000000  0.0000000 )
                  (  0.0000000  0.0000000  1.0000000 )
                  (  0.0000000  1.0000000  0.0000000 )


      isym = 23     inv.  90 deg rotation - cart. axis [-1,0,0]  

 cryst.   s(23) = (     0          1         -1      )
                  (     0          0         -1      )
                  (     1          0         -1      )

 cart.    s(23) = ( -1.0000000  0.0000000  0.0000000 )
                  (  0.0000000  0.0000000 -1.0000000 )
                  (  0.0000000  1.0000000  0.0000000 )


      isym = 24     inv.  90 deg rotation - cart. axis [1,0,0]   

 cryst.   s(24) = (     0         -1          1      )
                  (     1         -1          0      )
                  (     0         -1          0      )

 cart.    s(24) = ( -1.0000000  0.0000000  0.0000000 )
                  (  0.0000000  0.0000000  1.0000000 )
                  (  0.0000000 -1.0000000  0.0000000 )


   Cartesian axes

     site n.     atom                  positions (alat units)
         1           Si  tau(   1) = (   0.0000000   0.0000000   0.0000000  )
         2           Si  tau(   2) = (   0.1780411   0.1780411   0.1780411  )
         3           Si  tau(   3) = (   0.3560821   0.3560821   0.0000000  )
         4           Si  tau(   4) = (   0.5341232   0.5341232   0.1780411  )
         5           Si  tau(   5) = (   0.3560821   0.0000000   0.3560821  )
         6           Si  tau(   6) = (   0.5341232   0.1780411   0.5341232  )
         7           Si  tau(   7) = (   0.7121642   0.3560821   0.3560821  )
         8           Si  tau(   8) = (   0.8902053   0.5341232   0.5341232  )
         9           Si  tau(   9) = (   0.0000000   0.3560821   0.3560821  )
        10           Si  tau(  10) = (   0.1780411   0.5341232   0.5341232  )
        11           Si  tau(  11) = (   0.3560821   0.7121642   0.3560821  )
        12           Si  tau(  12) = (   0.5341232   0.8902053   0.5341232  )
        13           Si  tau(  13) = (   0.3560821   0.3560821   0.7121642  )
        14           Si  tau(  14) = (   0.5341232   0.5341232   0.8902053  )
        15           Si  tau(  15) = (   0.7121642   0.7121642   0.7121642  )
        16           Si  tau(  16) = (   0.8902053   0.8902053   0.8902053  )

   Crystallographic axes

     site n.     atom                  positions (cryst. coord.)
         1           Si  tau(   1) = (  0.0000000  0.0000000  0.0000000  )
         2           Si  tau(   2) = (  0.1250000  0.1250000  0.1250000  )
         3           Si  tau(   3) = (  0.0000000  0.0000000  0.5000000  )
         4           Si  tau(   4) = (  0.1250000  0.1250000  0.6250000  )
         5           Si  tau(   5) = (  0.0000000  0.5000000  0.0000000  )
         6           Si  tau(   6) = (  0.1250000  0.6250000  0.1250000  )
         7           Si  tau(   7) = (  0.0000000  0.5000000  0.5000000  )
         8           Si  tau(   8) = (  0.1250000  0.6250000  0.6250000  )
         9           Si  tau(   9) = (  0.5000000  0.0000000  0.0000000  )
        10           Si  tau(  10) = (  0.6250000  0.1250000  0.1250000  )
        11           Si  tau(  11) = (  0.5000000  0.0000000  0.5000000  )
        12           Si  tau(  12) = (  0.6250000  0.1250000  0.6250000  )
        13           Si  tau(  13) = (  0.5000000  0.5000000  0.0000000  )
        14           Si  tau(  14) = (  0.6250000  0.6250000  0.1250000  )
        15           Si  tau(  15) = (  0.5000000  0.5000000  0.5000000  )
        16           Si  tau(  16) = (  0.6250000  0.6250000  0.6250000  )

     number of k points=    29
                       cart. coord. in units 2pi/alat
        k(    1) = (   0.0000000   0.0000000   0.0000000), wk =   0.0039062
        k(    2) = (   0.0877607   0.0877607  -0.0877607), wk =   0.0312500
        k(    3) = (   0.1755213   0.1755213  -0.1755213), wk =   0.0312500
        k(    4) = (   0.2632820   0.2632820  -0.2632820), wk =   0.0312500
        k(    5) = (  -0.3510426  -0.3510426   0.3510426), wk =   0.0156250
        k(    6) = (   0.1755213   0.0000000   0.0000000), wk =   0.0234375
        k(    7) = (   0.2632820   0.0877607  -0.0877607), wk =   0.0937500
        k(    8) = (   0.3510426   0.1755213  -0.1755213), wk =   0.0937500
        k(    9) = (  -0.2632820  -0.4388033   0.4388033), wk =   0.0937500
        k(   10) = (  -0.1755213  -0.3510426   0.3510426), wk =   0.0937500
        k(   11) = (  -0.0877607  -0.2632820   0.2632820), wk =   0.0937500
        k(   12) = (   0.0000000  -0.1755213   0.1755213), wk =   0.0468750
        k(   13) = (   0.3510426   0.0000000   0.0000000), wk =   0.0234375
        k(   14) = (   0.4388033   0.0877607  -0.0877607), wk =   0.0937500
        k(   15) = (  -0.1755213  -0.5265639   0.5265639), wk =   0.0937500
        k(   16) = (  -0.0877607  -0.4388033   0.4388033), wk =   0.0937500
        k(   17) = (   0.0000000  -0.3510426   0.3510426), wk =   0.0468750
        k(   18) = (   0.5265639   0.0000000   0.0000000), wk =   0.0234375
        k(   19) = (  -0.0877607  -0.6143246   0.6143246), wk =   0.0937500
        k(   20) = (   0.0000000  -0.5265639   0.5265639), wk =   0.0468750
        k(   21) = (  -0.7020852   0.0000000   0.0000000), wk =   0.0117188
        k(   22) = (   0.3510426   0.1755213   0.0000000), wk =   0.0937500
        k(   23) = (  -0.2632820  -0.4388033   0.6143246), wk =   0.1875000
        k(   24) = (  -0.1755213  -0.3510426   0.5265639), wk =   0.0937500
        k(   25) = (  -0.1755213  -0.5265639   0.7020852), wk =   0.0937500
        k(   26) = (  -0.0877607  -0.4388033   0.6143246), wk =   0.1875000
        k(   27) = (   0.0000000  -0.3510426   0.5265639), wk =   0.0937500
        k(   28) = (  -0.7020852   0.1755213   0.0000000), wk =   0.0468750
        k(   29) = (  -0.7020852   0.3510426   0.0000000), wk =   0.0234375

                       cryst. coord.
        k(    1) = (   0.0000000   0.0000000   0.0000000), wk =   0.0039062
        k(    2) = (   0.0000000   0.0000000   0.1250000), wk =   0.0312500
        k(    3) = (   0.0000000   0.0000000   0.2500000), wk =   0.0312500
        k(    4) = (   0.0000000   0.0000000   0.3750000), wk =   0.0312500
        k(    5) = (   0.0000000   0.0000000  -0.5000000), wk =   0.0156250
        k(    6) = (   0.0000000   0.1250000   0.1250000), wk =   0.0234375
        k(    7) = (   0.0000000   0.1250000   0.2500000), wk =   0.0937500
        k(    8) = (   0.0000000   0.1250000   0.3750000), wk =   0.0937500
        k(    9) = (   0.0000000   0.1250000  -0.5000000), wk =   0.0937500
        k(   10) = (   0.0000000   0.1250000  -0.3750000), wk =   0.0937500
        k(   11) = (   0.0000000   0.1250000  -0.2500000), wk =   0.0937500
        k(   12) = (   0.0000000   0.1250000  -0.1250000), wk =   0.0468750
        k(   13) = (   0.0000000   0.2500000   0.2500000), wk =   0.0234375
        k(   14) = (   0.0000000   0.2500000   0.3750000), wk =   0.0937500
        k(   15) = (   0.0000000   0.2500000  -0.5000000), wk =   0.0937500
        k(   16) = (   0.0000000   0.2500000  -0.3750000), wk =   0.0937500
        k(   17) = (   0.0000000   0.2500000  -0.2500000), wk =   0.0468750
        k(   18) = (   0.0000000   0.3750000   0.3750000), wk =   0.0234375
        k(   19) = (   0.0000000   0.3750000  -0.5000000), wk =   0.0937500
        k(   20) = (   0.0000000   0.3750000  -0.3750000), wk =   0.0468750
        k(   21) = (   0.0000000  -0.5000000  -0.5000000), wk =   0.0117188
        k(   22) = (   0.1250000   0.2500000   0.3750000), wk =   0.0937500
        k(   23) = (   0.1250000   0.2500000  -0.5000000), wk =   0.1875000
        k(   24) = (   0.1250000   0.2500000  -0.3750000), wk =   0.0937500
        k(   25) = (   0.1250000   0.3750000  -0.5000000), wk =   0.0937500
        k(   26) = (   0.1250000   0.3750000  -0.3750000), wk =   0.1875000
        k(   27) = (   0.1250000   0.3750000  -0.2500000), wk =   0.0937500
        k(   28) = (   0.1250000  -0.5000000  -0.3750000), wk =   0.0468750
        k(   29) = (   0.2500000  -0.5000000  -0.2500000), wk =   0.0234375

     Dense  grid:   417097 G-vectors     FFT dimensions: ( 108, 108, 108)

     Smooth grid:   105395 G-vectors     FFT dimensions: (  72,  72,  72)

     Dynamical RAM for                 wfc:       1.63 MB

     Dynamical RAM for     wfc (w. buffer):      49.04 MB

     Dynamical RAM for           str. fact:       0.80 MB

     Dynamical RAM for           local pot:       0.00 MB

     Dynamical RAM for          nlocal pot:       7.24 MB

     Dynamical RAM for                qrad:       4.14 MB

     Dynamical RAM for          rho,v,vnew:       6.12 MB

     Dynamical RAM for               rhoin:       2.04 MB

     Dynamical RAM for            rho*nmix:      12.73 MB

     Dynamical RAM for           G-vectors:       3.08 MB

     Dynamical RAM for          h,s,v(r/c):       3.09 MB

     Dynamical RAM for          <psi|beta>:       0.29 MB

     Dynamical RAM for                 psi:       6.54 MB

     Dynamical RAM for                hpsi:       6.54 MB

     Dynamical RAM for                spsi:       6.54 MB

     Dynamical RAM for      wfcinit/wfcrot:       3.37 MB

     Dynamical RAM for           addusdens:     160.70 MB

     Dynamical RAM for          addusforce:     185.03 MB

     Dynamical RAM for         addusstress:     159.91 MB

     Estimated static dynamical RAM per process >      93.01 MB

     Estimated max dynamical RAM per process >     278.04 MB

     Estimated total dynamical RAM >       2.17 GB

     Initial potential from superposition of free atoms

     starting charge   63.99105, renormalised to   64.00000
     Starting wfcs are   64 randomized atomic wfcs +    1 random wfcs

     total cpu time spent up to now is       10.5 secs

     Self-consistent Calculation

     iteration #  1     ecut=    50.00 Ry     beta= 0.70
     Davidson diagonalization with overlap
     ethr =  1.00E-02,  avg # of iterations =  5.7

     Threshold (ethr) on eigenvalues was too large:
     Diagonalizing with lowered threshold

     Davidson diagonalization with overlap
     ethr =  6.86E-04,  avg # of iterations =  1.7

     total cpu time spent up to now is       80.7 secs

     total energy              =    -182.70366744 Ry
     Harris-Foulkes estimate   =    -182.80613945 Ry
     estimated scf accuracy    <       0.43461871 Ry

     iteration #  2     ecut=    50.00 Ry     beta= 0.70
     Davidson diagonalization with overlap
     ethr =  6.79E-04,  avg # of iterations =  1.1

     total cpu time spent up to now is      104.0 secs

     total energy              =    -182.72072203 Ry
     Harris-Foulkes estimate   =    -182.72160145 Ry
     estimated scf accuracy    <       0.01719717 Ry

     iteration #  3     ecut=    50.00 Ry     beta= 0.70
     Davidson diagonalization with overlap
     ethr =  2.69E-05,  avg # of iterations =  6.4

     total cpu time spent up to now is      136.6 secs

     total energy              =    -182.72164763 Ry
     Harris-Foulkes estimate   =    -182.72162199 Ry
     estimated scf accuracy    <       0.00033833 Ry

     iteration #  4     ecut=    50.00 Ry     beta= 0.70
     Davidson diagonalization with overlap
     ethr =  5.29E-07,  avg # of iterations =  4.7

     total cpu time spent up to now is      170.6 secs

     total energy              =    -182.72171522 Ry
     Harris-Foulkes estimate   =    -182.72171404 Ry
     estimated scf accuracy    <       0.00000120 Ry

     iteration #  5     ecut=    50.00 Ry     beta= 0.70
     Davidson diagonalization with overlap
     ethr =  1.87E-09,  avg # of iterations =  3.9

     total cpu time spent up to now is      204.4 secs

     total energy              =    -182.72171648 Ry
     Harris-Foulkes estimate   =    -182.72171648 Ry
     estimated scf accuracy    <       0.00000018 Ry

     iteration #  6     ecut=    50.00 Ry     beta= 0.70
     Davidson diagonalization with overlap
     ethr =  2.81E-10,  avg # of iterations =  2.0

     total cpu time spent up to now is      229.1 secs

     total energy              =    -182.72171655 Ry
     Harris-Foulkes estimate   =    -182.72171652 Ry
     estimated scf accuracy    <       0.00000003 Ry

     iteration #  7     ecut=    50.00 Ry     beta= 0.70
     Davidson diagonalization with overlap
     ethr =  4.99E-11,  avg # of iterations =  2.0

     total cpu time spent up to now is      255.8 secs

     total energy              =    -182.72171656 Ry
     Harris-Foulkes estimate   =    -182.72171656 Ry
     estimated scf accuracy    <          2.1E-09 Ry

     iteration #  8     ecut=    50.00 Ry     beta= 0.70
     Davidson diagonalization with overlap
     ethr =  3.20E-12,  avg # of iterations =  2.3

     total cpu time spent up to now is      282.8 secs

     total energy              =    -182.72171656 Ry
     Harris-Foulkes estimate   =    -182.72171656 Ry
     estimated scf accuracy    <          2.5E-10 Ry

     iteration #  9     ecut=    50.00 Ry     beta= 0.70
     Davidson diagonalization with overlap
     ethr =  3.90E-13,  avg # of iterations =  2.0

     total cpu time spent up to now is      311.0 secs

     End of self-consistent calculation

          k = 0.0000 0.0000 0.0000 ( 13323 PWs)   bands (ev):

    -5.8352  -3.5580  -3.5580  -3.5580  -3.5580  -1.7690  -1.7690  -1.7690
    -1.7690  -1.7690  -1.7690  -0.8908  -0.8908  -0.8908  -0.8908   3.1838
     3.1838   3.1838   3.1838   3.1838   3.1838   4.8002   4.8002   4.8002
     4.8002   4.8002   4.8002   4.8002   4.8002   5.9809   5.9809   5.9809
     6.7351   6.7351   6.7351   6.7351   6.7351   6.7351   7.4430   7.4430
     7.4430   7.4430   8.5351   8.5351   8.5351   9.0977   9.3319   9.3319
     9.3319   9.3319   9.3319   9.3319   9.3319   9.3319  13.6880  13.6880
    13.6880  13.6880  13.6990  13.8613  15.9016  15.9016  15.9016  15.9016
    15.9016

     occupation numbers 
     1.0000   1.0000   1.0000   1.0000   1.0000   1.0000   1.0000   1.0000
     1.0000   1.0000   1.0000   1.0000   1.0000   1.0000   1.0000   1.0000
     1.0000   1.0000   1.0000   1.0000   1.0000   1.0000   1.0000   1.0000
     1.0000   1.0000   1.0000   1.0000   1.0000   1.0000   1.0000   1.0000
     0.0000   0.0000   0.0000   0.0000   0.0000   0.0000   0.0000   0.0000
     0.0000   0.0000   0.0000   0.0000   0.0000   0.0000   0.0000   0.0000
     0.0000   0.0000   0.0000   0.0000   0.0000   0.0000   0.0000   0.0000
     0.0000   0.0000   0.0000   0.0000   0.0000   0.0000   0.0000   0.0000
     0.0000

          k = 0.0878 0.0878-0.0878 ( 13248 PWs)   bands (ev):

    -5.7849  -3.7531  -3.5371  -3.5371  -3.5371  -2.2185  -2.2185  -2.2185
    -1.2799  -1.2799  -1.2799  -0.8345  -0.8345  -0.8345  -0.6006   2.9937
     2.9937   2.9937   3.2258   3.2258   3.2258   4.4445   4.4445   4.4445
     4.6999   4.6999   4.6999   4.8280   4.8280   5.4485   5.8982   5.8982
     6.7540   6.7540   6.7540   7.1122   7.1122   7.1122   7.4752   7.7851
     7.7851   7.7851   8.5735   8.6564   8.6564   9.2614   9.2614   9.2614
     9.3615   9.3615   9.5064   9.5301   9.5301   9.5301  13.5370  13.5370
    13.7328  13.8415  13.8415  13.8415  14.0801  15.2921  15.2921  15.2921
    15.3211

     occupation numbers 
     1.0000   1.0000   1.0000   1.0000   1.0000   1.0000   1.0000   1.0000
     1.0000   1.0000   1.0000   1.0000   1.0000   1.0000   1.0000   1.0000
     1.0000   1.0000   1.0000   1.0000   1.0000   1.0000   1.0000   1.0000
     1.0000   1.0000   1.0000   1.0000   1.0000   1.0000   1.0000   1.0000
     0.0000   0.0000   0.0000   0.0000   0.0000   0.0000   0.0000   0.0000
     0.0000   0.0000   0.0000   0.0000   0.0000   0.0000   0.0000   0.0000
     0.0000   0.0000   0.0000   0.0000   0.0000   0.0000   0.0000   0.0000
     0.0000   0.0000   0.0000   0.0000   0.0000   0.0000   0.0000   0.0000
     0.0000

          k = 0.1755 0.1755-0.1755 ( 13200 PWs)   bands (ev):

    -5.6349  -4.1769  -3.4711  -3.4711  -3.4711  -2.6068  -2.6068  -2.6068
    -0.8018  -0.8018  -0.8018  -0.6804  -0.6804  -0.6804   0.1070   2.6204
     2.6204   2.6204   3.3502   3.3502   3.3502   3.7329   3.7329   3.7329
     4.3876   4.4468   4.4468   4.4468   4.9111   4.9111   5.6978   5.6978
     6.9141   6.9141   6.9141   7.5710   7.9684   7.9684   7.9684   8.1424
     8.1424   8.1424   8.4189   8.9510   8.9510   9.4349   9.4349   9.4700
     9.4700   9.4700  10.0760  10.0760  10.0760  10.5023  13.2265  13.2265
    13.2864  13.2864  13.2864  13.8210  14.1535  14.1535  14.1535  14.2064
    14.2064

     occupation numbers 
     1.0000   1.0000   1.0000   1.0000   1.0000   1.0000   1.0000   1.0000
     1.0000   1.0000   1.0000   1.0000   1.0000   1.0000   1.0000   1.0000
     1.0000   1.0000   1.0000   1.0000   1.0000   1.0000   1.0000   1.0000
     1.0000   1.0000   1.0000   1.0000   1.0000   1.0000   1.0000   1.0000
     0.0000   0.0000   0.0000   0.0000   0.0000   0.0000   0.0000   0.0000
     0.0000   0.0000   0.0000   0.0000   0.0000   0.0000   0.0000   0.0000
     0.0000   0.0000   0.0000   0.0000   0.0000   0.0000   0.0000   0.0000
     0.0000   0.0000   0.0000   0.0000   0.0000   0.0000   0.0000   0.0000
     0.0000

          k = 0.2633 0.2633-0.2633 ( 13185 PWs)   bands (ev):

    -5.3881  -4.6367  -3.3526  -3.3526  -3.3526  -2.9254  -2.9254  -2.9254
    -0.4796  -0.4796  -0.4796  -0.4447  -0.4447  -0.4447   1.0347   2.3830
     2.3830   2.3830   3.0240   3.0240   3.0240   3.2270   3.5515   3.5515
     3.5515   4.1302   4.1302   4.1302   5.0480   5.0480   5.4593   5.4593
     7.1774   7.1774   7.1774   7.7271   7.9071   7.9071   7.9071   8.1783
     9.1087   9.1087   9.1087   9.2705   9.2705   9.5009   9.5009  10.3981
    10.3981  10.3981  10.8772  10.8773  10.8773  11.6248  11.8627  11.8627
    11.8627  12.9080  12.9080  12.9080  12.9691  12.9691  12.9691  13.0418
    13.0418

     occupation numbers 
     1.0000   1.0000   1.0000   1.0000   1.0000   1.0000   1.0000   1.0000
     1.0000   1.0000   1.0000   1.0000   1.0000   1.0000   1.0000   1.0000
     1.0000   1.0000   1.0000   1.0000   1.0000   1.0000   1.0000   1.0000
     1.0000   1.0000   1.0000   1.0000   1.0000   1.0000   1.0000   1.0000
     0.0000   0.0000   0.0000   0.0000   0.0000   0.0000   0.0000   0.0000
     0.0000   0.0000   0.0000   0.0000   0.0000   0.0000   0.0000   0.0000
     0.0000   0.0000   0.0000   0.0000   0.0000   0.0000   0.0000   0.0000
     0.0000   0.0000   0.0000   0.0000   0.0000   0.0000   0.0000   0.0000
     0.0000

          k =-0.3510-0.3510 0.3510 ( 13190 PWs)   bands (ev):

    -5.0509  -5.0509  -3.1729  -3.1729  -3.1729  -3.1729  -3.1729  -3.1729
    -0.3465  -0.3464  -0.3464  -0.3464  -0.3464  -0.3464   2.0913   2.0913
     2.5162   2.5162   2.5162   2.5162   2.5162   2.5162   3.8186   3.8186
     3.8186   3.8186   3.8186   3.8186   5.2344   5.2344   5.2344   5.2344
     7.5244   7.5244   7.5244   7.5244   7.5244   7.5244   7.9353   7.9353
     9.4700   9.4700   9.4700   9.4700  10.4161  10.4161  10.4161  10.4161
    10.4161  10.4161  11.6236  11.6236  11.6236  11.6236  11.6236  11.6236
    11.8592  11.8592  11.8592  11.8592  11.8592  11.8592  12.7226  12.7226
    13.1772

     occupation numbers 
     1.0000   1.0000   1.0000   1.0000   1.0000   1.0000   1.0000   1.0000
     1.0000   1.0000   1.0000   1.0000   1.0000   1.0000   1.0000   1.0000
     1.0000   1.0000   1.0000   1.0000   1.0000   1.0000   1.0000   1.0000
     1.0000   1.0000   1.0000   1.0000   1.0000   1.0000   1.0000   1.0000
     0.0000   0.0000   0.0000   0.0000   0.0000   0.0000   0.0000   0.0000
     0.0000   0.0000   0.0000   0.0000   0.0000   0.0000   0.0000   0.0000
     0.0000   0.0000   0.0000   0.0000   0.0000   0.0000   0.0000   0.0000
     0.0000   0.0000   0.0000   0.0000   0.0000   0.0000   0.0000   0.0000
     0.0000

          k = 0.1755 0.0000 0.0000 ( 13243 PWs)   bands (ev):

    -5.7681  -3.6055  -3.6055  -3.6055  -3.6055  -2.6752  -1.7481  -1.7481
    -1.7481  -1.7481  -0.7828  -0.7345  -0.7345  -0.7345  -0.7345   3.0038
     3.0038   3.0038   3.0038   3.2445   3.2445   4.3882   4.3882   4.3882
     4.3882   4.7810   4.7810   4.7810   4.7810   5.5475   5.7251   5.7251
     6.5999   7.0519   7.0860   7.0860   7.0860   7.0860   7.7939   7.7939
     7.7939   7.7939   8.3773   8.8736   8.8736   9.3376   9.3376   9.3376
     9.3376   9.4666   9.4666   9.4666   9.4666   9.5124  13.2229  13.7737
    13.8740  13.8740  13.8740  13.8740  14.1523  15.0670  15.0670  15.2400
    15.2400

     occupation numbers 
     1.0000   1.0000   1.0000   1.0000   1.0000   1.0000   1.0000   1.0000
     1.0000   1.0000   1.0000   1.0000   1.0000   1.0000   1.0000   1.0000
     1.0000   1.0000   1.0000   1.0000   1.0000   1.0000   1.0000   1.0000
     1.0000   1.0000   1.0000   1.0000   1.0000   1.0000   1.0000   1.0000
     0.0000   0.0000   0.0000   0.0000   0.0000   0.0000   0.0000   0.0000
     0.0000   0.0000   0.0000   0.0000   0.0000   0.0000   0.0000   0.0000
     0.0000   0.0000   0.0000   0.0000   0.0000   0.0000   0.0000   0.0000
     0.0000   0.0000   0.0000   0.0000   0.0000   0.0000   0.0000   0.0000
     0.0000

          k = 0.2633 0.0878-0.0878 ( 13209 PWs)   bands (ev):

    -5.6512  -3.9813  -3.6207  -3.6207  -3.4045  -3.0712  -2.1676  -2.1676
    -1.2625  -1.2625  -0.7752  -0.5401  -0.5401  -0.2795  -0.1395   2.5768
     2.5768   3.1044   3.1044   3.1307   3.3463   3.6083   3.8964   3.8964
     4.3953   4.5612   4.6001   4.6001   4.6978   4.9168   5.4742   5.6319
     6.7576   7.1872   7.1872   7.4653   7.8650   7.9129   7.9129   8.1871
     8.2382   8.2382   8.3723   8.9397   9.1949   9.1949   9.2331   9.4533
     9.4676   9.4968   9.9387   9.9671   9.9671  10.2457  12.8309  13.5075
    13.5075  13.7114  13.7676  13.9731  13.9731  14.1163  14.2227  14.2312
    14.2463

     occupation numbers 
     1.0000   1.0000   1.0000   1.0000   1.0000   1.0000   1.0000   1.0000
     1.0000   1.0000   1.0000   1.0000   1.0000   1.0000   1.0000   1.0000
     1.0000   1.0000   1.0000   1.0000   1.0000   1.0000   1.0000   1.0000
     1.0000   1.0000   1.0000   1.0000   1.0000   1.0000   1.0000   1.0000
     0.0000   0.0000   0.0000   0.0000   0.0000   0.0000   0.0000   0.0000
     0.0000   0.0000   0.0000   0.0000   0.0000   0.0000   0.0000   0.0000
     0.0000   0.0000   0.0000   0.0000   0.0000   0.0000   0.0000   0.0000
     0.0000   0.0000   0.0000   0.0000   0.0000   0.0000   0.0000   0.0000
     0.0000

          k = 0.3510 0.1755-0.1755 ( 13180 PWs)   bands (ev):

    -5.4363  -4.4426  -3.5730  -3.5730  -3.3907  -3.1595  -2.5283  -2.5283
    -0.8410  -0.8410  -0.7476  -0.2921  -0.2921   0.1387   0.7241   2.2328
     2.2328   2.8296   2.8972   3.2926   3.2926   3.2981   3.2981   3.5270
     3.5896   4.2400   4.2400   4.2549   4.4690   5.1005   5.2174   5.4404
     7.0809   7.3956   7.3956   7.9956   8.0088   8.3172   8.3282   8.3282
     8.4424   8.9353   9.0234   9.0234   9.4535   9.5643   9.5643   9.6022
     9.6102  10.3339  10.6897  10.8399  10.8399  11.1434  12.0919  12.0919
    12.6826  12.6826  12.6927  13.0263  13.0313  13.1488  13.2417  13.3556
    13.5779

     occupation numbers 
     1.0000   1.0000   1.0000   1.0000   1.0000   1.0000   1.0000   1.0000
     1.0000   1.0000   1.0000   1.0000   1.0000   1.0000   1.0000   1.0000
     1.0000   1.0000   1.0000   1.0000   1.0000   1.0000   1.0000   1.0000
     1.0000   1.0000   1.0000   1.0000   1.0000   1.0000   1.0000   1.0000
     0.0000   0.0000   0.0000   0.0000   0.0000   0.0000   0.0000   0.0000
     0.0000   0.0000   0.0000   0.0000   0.0000   0.0000   0.0000   0.0000
     0.0000   0.0000   0.0000   0.0000   0.0000   0.0000   0.0000   0.0000
     0.0000   0.0000   0.0000   0.0000   0.0000   0.0000   0.0000   0.0000
     0.0000

          k =-0.2633-0.4388 0.4388 ( 13180 PWs)   bands (ev):

    -5.1284  -4.8766  -3.6273  -3.4544  -3.4544  -2.8755  -2.8291  -2.8291
    -0.7306  -0.6107  -0.6107  -0.0817  -0.0817   0.3119   1.7346   2.1985
     2.1985   2.2299   2.4600   2.7933   2.7933   2.9053   3.5600   3.5600
     3.7773   3.8585   3.8585   3.9381   4.6108   4.9951   5.1914   5.3214
     7.4599   7.6416   7.6962   7.6962   7.9720   7.9720   8.1788   8.3067
     9.1284   9.3901   9.4818   9.6753   9.8430  10.2948  10.2948  10.4799
    10.4799  10.6977  10.6977  11.3339  11.4770  11.4770  11.6385  11.7035
    11.7375  11.7505  11.9172  11.9172  12.0683  12.5213  12.7653  12.9822
    12.9822

     occupation numbers 
     1.0000   1.0000   1.0000   1.0000   1.0000   1.0000   1.0000   1.0000
     1.0000   1.0000   1.0000   1.0000   1.0000   1.0000   1.0000   1.0000
     1.0000   1.0000   1.0000   1.0000   1.0000   1.0000   1.0000   1.0000
     1.0000   1.0000   1.0000   1.0000   1.0000   1.0000   1.0000   1.0000
     0.0000   0.0000   0.0000   0.0000   0.0000   0.0000   0.0000   0.0000
     0.0000   0.0000   0.0000   0.0000   0.0000   0.0000   0.0000   0.0000
     0.0000   0.0000   0.0000   0.0000   0.0000   0.0000   0.0000   0.0000
     0.0000   0.0000   0.0000   0.0000   0.0000   0.0000   0.0000   0.0000
     0.0000

          k =-0.1755-0.3510 0.3510 ( 13193 PWs)   bands (ev):

    -5.2412  -4.7379  -3.7793  -3.2594  -3.2594  -3.0741  -3.0741  -2.5524
    -0.8633  -0.6176  -0.6176  -0.0690  -0.0690   0.1823   1.3847   1.9729
     2.5553   2.5553   2.5799   2.5799   2.8301   3.2969   3.5233   3.5233
     3.6571   3.8894   3.8894   4.0796   4.8200   4.8268   4.9446   5.5606
     7.2961   7.5966   7.5966   7.8684   8.0597   8.0597   8.1151   8.3997
     9.1906   9.2579   9.3052   9.3052   9.5410   9.8856  10.1752  10.3221
    10.3221  10.5127  10.8320  11.0823  11.6825  11.6825  11.7383  11.7383
    11.8091  11.8138  11.8138  12.1907  12.5634  12.7259  12.7846  13.0858
    13.0858

     occupation numbers 
     1.0000   1.0000   1.0000   1.0000   1.0000   1.0000   1.0000   1.0000
     1.0000   1.0000   1.0000   1.0000   1.0000   1.0000   1.0000   1.0000
     1.0000   1.0000   1.0000   1.0000   1.0000   1.0000   1.0000   1.0000
     1.0000   1.0000   1.0000   1.0000   1.0000   1.0000   1.0000   1.0000
     0.0000   0.0000   0.0000   0.0000   0.0000   0.0000   0.0000   0.0000
     0.0000   0.0000   0.0000   0.0000   0.0000   0.0000   0.0000   0.0000
     0.0000   0.0000   0.0000   0.0000   0.0000   0.0000   0.0000   0.0000
     0.0000   0.0000   0.0000   0.0000   0.0000   0.0000   0.0000   0.0000
     0.0000

          k =-0.0878-0.2633 0.2633 ( 13200 PWs)   bands (ev):

    -5.5188  -4.2878  -3.8479  -3.2703  -3.2703  -2.9863  -2.9863  -2.1881
    -1.2125  -0.7348  -0.7348  -0.3429  -0.3429  -0.0950   0.4145   2.1179
     2.7331   2.7331   3.1750   3.1750   3.2630   3.2630   3.4368   3.9235
     3.9472   4.2450   4.2450   4.4000   4.7206   4.7295   5.0963   5.7810
     7.0287   7.2743   7.2743   7.9515   8.1565   8.1626   8.1626   8.3843
     8.3843   8.6252   8.8995   8.9252   9.1893   9.2676   9.4313   9.4313
     9.5051   9.7868  10.2510  10.7545  10.7545  10.9793  12.2863  12.7238
    12.8873  12.9091  12.9091  13.1882  13.1882  13.5022  13.8855  14.0950
    14.2234

     occupation numbers 
     1.0000   1.0000   1.0000   1.0000   1.0000   1.0000   1.0000   1.0000
     1.0000   1.0000   1.0000   1.0000   1.0000   1.0000   1.0000   1.0000
     1.0000   1.0000   1.0000   1.0000   1.0000   1.0000   1.0000   1.0000
     1.0000   1.0000   1.0000   1.0000   1.0000   1.0000   1.0000   1.0000
     0.0000   0.0000   0.0000   0.0000   0.0000   0.0000   0.0000   0.0000
     0.0000   0.0000   0.0000   0.0000   0.0000   0.0000   0.0000   0.0000
     0.0000   0.0000   0.0000   0.0000   0.0000   0.0000   0.0000   0.0000
     0.0000   0.0000   0.0000   0.0000   0.0000   0.0000   0.0000   0.0000
     0.0000

          k = 0.0000-0.1755 0.1755 ( 13233 PWs)   bands (ev):

    -5.7013  -3.8370  -3.8369  -3.4240  -3.4240  -2.6369  -2.6369  -1.8407
    -1.6232  -0.8287  -0.8287  -0.7900  -0.7900  -0.3782  -0.3782   2.5293
     3.0290   3.0290   3.1151   3.1151   3.2908   3.8788   3.8788   4.5525
     4.5525   4.5601   4.5601   4.6787   4.6787   4.9292   5.4682   5.9173
     6.8582   6.9697   6.9697   7.3775   7.3775   7.8386   7.8386   7.8513
     8.2104   8.2104   8.6734   8.7733   8.7764   9.1703   9.1703   9.2463
     9.2463   9.6463   9.6463   9.9320   9.9320  10.0810  13.1093  13.5698
    13.5919  13.5919  14.0371  14.0371  14.1716  14.1716  14.4180  14.6131
    14.6131

     occupation numbers 
     1.0000   1.0000   1.0000   1.0000   1.0000   1.0000   1.0000   1.0000
     1.0000   1.0000   1.0000   1.0000   1.0000   1.0000   1.0000   1.0000
     1.0000   1.0000   1.0000   1.0000   1.0000   1.0000   1.0000   1.0000
     1.0000   1.0000   1.0000   1.0000   1.0000   1.0000   1.0000   1.0000
     0.0000   0.0000   0.0000   0.0000   0.0000   0.0000   0.0000   0.0000
     0.0000   0.0000   0.0000   0.0000   0.0000   0.0000   0.0000   0.0000
     0.0000   0.0000   0.0000   0.0000   0.0000   0.0000   0.0000   0.0000
     0.0000   0.0000   0.0000   0.0000   0.0000   0.0000   0.0000   0.0000
     0.0000

          k = 0.3510 0.0000 0.0000 ( 13167 PWs)   bands (ev):

    -5.5673  -3.7082  -3.7082  -3.7082  -3.7082  -3.4857  -1.6954  -1.6954
    -1.6954  -1.6954  -0.3193  -0.3193  -0.3193  -0.3193   0.2645   2.6394
     2.6394   2.6394   2.6394   3.4255   3.4255   3.5577   3.5577   3.5577
     3.5577   4.6256   4.7362   4.7362   4.7362   4.7362   5.1932   5.1932
     6.6329   7.5600   7.9692   7.9692   7.9692   7.9692   7.9951   8.2906
     8.2906   8.2906   8.2906   9.5904   9.5904   9.5904   9.5904   9.6511
     9.6511   9.8459   9.8459   9.8459   9.8459  10.1886  12.4721  13.7311
    13.7311  13.7311  13.7311  13.8065  13.8065  13.8065  13.8065  13.9154
    13.9154

     occupation numbers 
     1.0000   1.0000   1.0000   1.0000   1.0000   1.0000   1.0000   1.0000
     1.0000   1.0000   1.0000   1.0000   1.0000   1.0000   1.0000   1.0000
     1.0000   1.0000   1.0000   1.0000   1.0000   1.0000   1.0000   1.0000
     1.0000   1.0000   1.0000   1.0000   1.0000   1.0000   1.0000   1.0000
     0.0000   0.0000   0.0000   0.0000   0.0000   0.0000   0.0000   0.0000
     0.0000   0.0000   0.0000   0.0000   0.0000   0.0000   0.0000   0.0000
     0.0000   0.0000   0.0000   0.0000   0.0000   0.0000   0.0000   0.0000
     0.0000   0.0000   0.0000   0.0000   0.0000   0.0000   0.0000   0.0000
     0.0000

          k = 0.4388 0.0878-0.0878 ( 13187 PWs)   bands (ev):

    -5.3849  -4.1601  -3.8245  -3.7243  -3.7243  -3.3680  -2.0883  -2.0883
    -1.2424  -1.2424  -0.4516  -0.0502  -0.0502   0.4600   0.7596   2.2113
     2.2113   2.7262   2.8112   2.8112   3.1026   3.1026   3.4046   3.5848
     3.5888   3.8049   4.4466   4.5279   4.5279   4.9198   4.9608   5.0023
     6.8878   7.9544   8.0400   8.1275   8.1275   8.1835   8.4438   8.6621
     8.6621   9.0397   9.0397   9.3450   9.3450   9.6945   9.7261   9.7701
    10.0872  10.3262  10.5332  10.5992  10.7001  10.7001  12.4008  12.4008
    12.4425  12.4425  12.5563  12.9757  13.0645  13.1079  13.1421  13.5083
    13.5083

     occupation numbers 
     1.0000   1.0000   1.0000   1.0000   1.0000   1.0000   1.0000   1.0000
     1.0000   1.0000   1.0000   1.0000   1.0000   1.0000   1.0000   1.0000
     1.0000   1.0000   1.0000   1.0000   1.0000   1.0000   1.0000   1.0000
     1.0000   1.0000   1.0000   1.0000   1.0000   1.0000   1.0000   1.0000
     0.0000   0.0000   0.0000   0.0000   0.0000   0.0000   0.0000   0.0000
     0.0000   0.0000   0.0000   0.0000   0.0000   0.0000   0.0000   0.0000
     0.0000   0.0000   0.0000   0.0000   0.0000   0.0000   0.0000   0.0000
     0.0000   0.0000   0.0000   0.0000   0.0000   0.0000   0.0000   0.0000
     0.0000

          k =-0.1755-0.5266 0.5266 ( 13181 PWs)   bands (ev):

    -5.1076  -4.6094  -4.0773  -3.6623  -3.6623  -2.9759  -2.4393  -2.4393
    -0.8990  -0.8990  -0.5963   0.1893   0.1893   1.0614   1.3959   2.0109
     2.0109   2.0689   2.7225   2.7225   2.7716   3.0868   3.0868   3.3641
     3.7123   3.8167   4.0912   4.0912   4.1299   4.6902   4.7538   5.2178
     7.3530   7.8381   8.1255   8.3781   8.3781   8.6325   8.8458   8.8458
     8.8867   9.5114   9.5114   9.5999   9.6411   9.8182  10.2538  10.2538
    10.4074  10.7235  10.9596  10.9596  11.1922  11.1922  11.3838  11.4238
    11.8606  11.8606  11.8872  12.1880  12.1900  12.4666  12.8639  13.3312
    13.3370

     occupation numbers 
     1.0000   1.0000   1.0000   1.0000   1.0000   1.0000   1.0000   1.0000
     1.0000   1.0000   1.0000   1.0000   1.0000   1.0000   1.0000   1.0000
     1.0000   1.0000   1.0000   1.0000   1.0000   1.0000   1.0000   1.0000
     1.0000   1.0000   1.0000   1.0000   1.0000   1.0000   1.0000   1.0000
     0.0000   0.0000   0.0000   0.0000   0.0000   0.0000   0.0000   0.0000
     0.0000   0.0000   0.0000   0.0000   0.0000   0.0000   0.0000   0.0000
     0.0000   0.0000   0.0000   0.0000   0.0000   0.0000   0.0000   0.0000
     0.0000   0.0000   0.0000   0.0000   0.0000   0.0000   0.0000   0.0000
     0.0000

          k =-0.0878-0.4388 0.4388 ( 13175 PWs)   bands (ev):

    -4.9985  -4.7434  -4.2395  -3.5186  -3.5186  -2.7515  -2.7515  -2.5566
    -0.8474  -0.7440  -0.7440   0.2552   0.2552   1.0244   1.7281   1.7332
     2.1528   2.1528   2.3903   2.5728   2.5728   3.4517   3.4517   3.6300
     3.6300   3.6333   3.8388   3.9533   4.1063   4.4568   4.5225   5.4778
     7.4939   7.8396   8.2320   8.4362   8.4362   8.7045   8.7045   8.8312
     9.3921   9.6001   9.6453   9.6453   9.6858   9.9855   9.9855  10.0247
    10.5106  10.5164  10.5164  10.6732  10.8784  11.2499  11.3714  11.6820
    11.7111  11.7111  12.2204  12.4286  12.7040  12.9826  12.9826  12.9998
    12.9998

     occupation numbers 
     1.0000   1.0000   1.0000   1.0000   1.0000   1.0000   1.0000   1.0000
     1.0000   1.0000   1.0000   1.0000   1.0000   1.0000   1.0000   1.0000
     1.0000   1.0000   1.0000   1.0000   1.0000   1.0000   1.0000   1.0000
     1.0000   1.0000   1.0000   1.0000   1.0000   1.0000   1.0000   1.0000
     0.0000   0.0000   0.0000   0.0000   0.0000   0.0000   0.0000   0.0000
     0.0000   0.0000   0.0000   0.0000   0.0000   0.0000   0.0000   0.0000
     0.0000   0.0000   0.0000   0.0000   0.0000   0.0000   0.0000   0.0000
     0.0000   0.0000   0.0000   0.0000   0.0000   0.0000   0.0000   0.0000
     0.0000

          k = 0.0000-0.3510 0.3510 ( 13190 PWs)   bands (ev):

    -5.3050  -4.3095  -4.3095  -3.2924  -3.2924  -3.0285  -3.0285  -2.1838
    -1.1869  -0.7299  -0.7299   0.0492   0.0492   0.7497   0.7497   1.7786
     2.5910   2.5910   2.6908   2.6908   3.2827   3.2827   3.3029   3.6025
     3.8681   3.8681   4.1700   4.1700   4.3902   4.4249   4.4249   5.6902
     7.2173   7.9381   7.9381   8.2083   8.2083   8.6428   8.6428   8.9433
     9.0029   9.0029   9.0876   9.1310   9.1310   9.3126   9.5711   9.5711
    10.0958  10.4233  10.4233  11.4050  11.4240  11.4240  11.6654  11.6654
    11.8275  11.8275  12.3468  13.0522  13.0522  13.2854  13.2854  13.3574
    13.8670

     occupation numbers 
     1.0000   1.0000   1.0000   1.0000   1.0000   1.0000   1.0000   1.0000
     1.0000   1.0000   1.0000   1.0000   1.0000   1.0000   1.0000   1.0000
     1.0000   1.0000   1.0000   1.0000   1.0000   1.0000   1.0000   1.0000
     1.0000   1.0000   1.0000   1.0000   1.0000   1.0000   1.0000   1.0000
     0.0000   0.0000   0.0000   0.0000   0.0000   0.0000   0.0000   0.0000
     0.0000   0.0000   0.0000   0.0000   0.0000   0.0000   0.0000   0.0000
     0.0000   0.0000   0.0000   0.0000   0.0000   0.0000   0.0000   0.0000
     0.0000   0.0000   0.0000   0.0000   0.0000   0.0000   0.0000   0.0000
     0.0000

          k = 0.5266 0.0000 0.0000 ( 13184 PWs)   bands (ev):

    -5.2347  -4.1881  -3.7981  -3.7981  -3.7981  -3.7981  -1.6391  -1.6391
    -1.6391  -1.6391   0.2175   0.2175   0.2175   0.2175   1.3519   2.3337
     2.3337   2.3337   2.3337   2.7305   2.7305   2.7305   2.7305   3.5612
     3.7232   3.7232   4.6313   4.6313   4.6935   4.6935   4.6935   4.6935
     6.8178   7.5447   8.2591   8.4185   8.4185   8.4185   8.4185   9.1517
     9.1517   9.1517   9.1517   9.9884  10.3603  10.3603  10.3603  10.3603
    10.3792  10.3792  10.3792  10.3792  10.6155  10.6155  12.1472  12.1472
    12.1472  12.1472  12.7263  12.7749  12.7749  12.8096  12.8096  12.8096
    12.8096

     occupation numbers 
     1.0000   1.0000   1.0000   1.0000   1.0000   1.0000   1.0000   1.0000
     1.0000   1.0000   1.0000   1.0000   1.0000   1.0000   1.0000   1.0000
     1.0000   1.0000   1.0000   1.0000   1.0000   1.0000   1.0000   1.0000
     1.0000   1.0000   1.0000   1.0000   1.0000   1.0000   1.0000   1.0000
     0.0000   0.0000   0.0000   0.0000   0.0000   0.0000   0.0000   0.0000
     0.0000   0.0000   0.0000   0.0000   0.0000   0.0000   0.0000   0.0000
     0.0000   0.0000   0.0000   0.0000   0.0000   0.0000   0.0000   0.0000
     0.0000   0.0000   0.0000   0.0000   0.0000   0.0000   0.0000   0.0000
     0.0000

          k =-0.0878-0.6143 0.6143 ( 13161 PWs)   bands (ev):

    -4.9886  -4.4665  -4.2563  -3.7896  -3.7896  -3.3728  -2.0256  -2.0256
    -1.2331  -1.2331  -0.0699   0.4299   0.4299   1.0280   1.8077   2.0138
     2.0138   2.0696   2.4480   2.4480   2.5970   2.5970   2.8329   2.8780
     3.8149   3.9359   4.3569   4.3828   4.3886   4.4839   4.4839   4.9752
     7.1491   7.5191   8.1077   8.6800   8.7232   8.7232   8.8022   9.3497
     9.3497   9.6610   9.9225   9.9225  10.1450  10.2732  10.2732  10.3527
    10.8948  10.9581  10.9581  11.0568  11.1625  11.3381  11.3459  11.3459
    11.6211  11.6211  11.9389  11.9566  11.9566  11.9658  12.0819  12.3269
    12.7333

     occupation numbers 
     1.0000   1.0000   1.0000   1.0000   1.0000   1.0000   1.0000   1.0000
     1.0000   1.0000   1.0000   1.0000   1.0000   1.0000   1.0000   1.0000
     1.0000   1.0000   1.0000   1.0000   1.0000   1.0000   1.0000   1.0000
     1.0000   1.0000   1.0000   1.0000   1.0000   1.0000   1.0000   1.0000
     0.0000   0.0000   0.0000   0.0000   0.0000   0.0000   0.0000   0.0000
     0.0000   0.0000   0.0000   0.0000   0.0000   0.0000   0.0000   0.0000
     0.0000   0.0000   0.0000   0.0000   0.0000   0.0000   0.0000   0.0000
     0.0000   0.0000   0.0000   0.0000   0.0000   0.0000   0.0000   0.0000
     0.0000

          k = 0.0000-0.5266 0.5266 ( 13200 PWs)   bands (ev):

    -4.6660  -4.6526  -4.6526  -3.6963  -3.6963  -2.9217  -2.3984  -2.3984
    -0.9298  -0.9298  -0.4641   0.4542   0.4542   1.7364   1.8036   1.9372
     1.9372   1.9471   1.9471   2.4122   2.4122   2.9849   2.9849   3.2556
     4.0059   4.0059   4.0406   4.0406   4.0868   4.2105   4.2105   5.2564
     7.7142   7.7142   7.7730   8.8919   9.3161   9.3161   9.4830   9.4830
     9.5319   9.5319   9.6151   9.6151   9.7662   9.7662   9.7744  10.0728
    10.3054  10.3054  10.8309  10.8309  11.2762  11.2762  11.5933  11.5933
    11.5938  11.9322  11.9923  11.9923  12.0992  12.1610  12.4756  12.4756
    12.9042

     occupation numbers 
     1.0000   1.0000   1.0000   1.0000   1.0000   1.0000   1.0000   1.0000
     1.0000   1.0000   1.0000   1.0000   1.0000   1.0000   1.0000   1.0000
     1.0000   1.0000   1.0000   1.0000   1.0000   1.0000   1.0000   1.0000
     1.0000   1.0000   1.0000   1.0000   1.0000   1.0000   1.0000   1.0000
     0.0000   0.0000   0.0000   0.0000   0.0000   0.0000   0.0000   0.0000
     0.0000   0.0000   0.0000   0.0000   0.0000   0.0000   0.0000   0.0000
     0.0000   0.0000   0.0000   0.0000   0.0000   0.0000   0.0000   0.0000
     0.0000   0.0000   0.0000   0.0000   0.0000   0.0000   0.0000   0.0000
     0.0000

          k =-0.7021 0.0000 0.0000 ( 13104 PWs)   bands (ev):

    -4.7734  -4.7734  -3.8324  -3.8324  -3.8324  -3.8324  -1.6146  -1.6146
    -1.6146  -1.6146   0.5375   0.5375   0.5375   0.5375   2.2179   2.2179
     2.2179   2.2179   2.3098   2.3098   2.3098   2.3098   2.4582   2.4582
     4.1301   4.1301   4.1301   4.1301   4.6765   4.6765   4.6765   4.6765
     7.1328   7.1328   8.4182   8.4182   8.4182   8.4182   9.1189   9.1189
    10.2569  10.2569  10.2569  10.2569  10.7272  10.7272  10.7272  10.7272
    10.9091  10.9091  10.9091  10.9091  11.0678  11.0678  11.0678  11.0678
    11.6694  11.6694  11.6694  11.6694  12.0167  12.0167  12.0167  12.0167
    12.4459

     occupation numbers 
     1.0000   1.0000   1.0000   1.0000   1.0000   1.0000   1.0000   1.0000
     1.0000   1.0000   1.0000   1.0000   1.0000   1.0000   1.0000   1.0000
     1.0000   1.0000   1.0000   1.0000   1.0000   1.0000   1.0000   1.0000
     1.0000   1.0000   1.0000   1.0000   1.0000   1.0000   1.0000   1.0000
     0.0000   0.0000   0.0000   0.0000   0.0000   0.0000   0.0000   0.0000
     0.0000   0.0000   0.0000   0.0000   0.0000   0.0000   0.0000   0.0000
     0.0000   0.0000   0.0000   0.0000   0.0000   0.0000   0.0000   0.0000
     0.0000   0.0000   0.0000   0.0000   0.0000   0.0000   0.0000   0.0000
     0.0000

          k = 0.3510 0.1755 0.0000 ( 13178 PWs)   bands (ev):

    -5.5016  -4.0460  -4.0460  -3.4364  -3.3431  -3.3431  -2.5284  -1.9276
    -1.4569  -0.8241  -0.6310  -0.6310   0.1585   0.1585   0.2117   2.1129
     2.5850   2.8686   3.1042   3.1042   3.1861   3.2180   3.3663   3.9557
     3.9557   4.0861   4.3464   4.3464   4.7341   4.7341   4.9328   5.5615
     7.0147   7.3264   7.8551   7.8800   8.2196   8.3188   8.3188   8.3527
     8.4992   8.4992   8.9306   9.1833   9.2538   9.2538   9.3581   9.3581
     9.5267  10.0562  10.0562  10.7095  10.7095  10.7747  12.5587  12.6069
    12.6069  12.6559  13.0901  13.4762  13.4762  13.6035  13.7785  13.9034
    13.9303

     occupation numbers 
     1.0000   1.0000   1.0000   1.0000   1.0000   1.0000   1.0000   1.0000
     1.0000   1.0000   1.0000   1.0000   1.0000   1.0000   1.0000   1.0000
     1.0000   1.0000   1.0000   1.0000   1.0000   1.0000   1.0000   1.0000
     1.0000   1.0000   1.0000   1.0000   1.0000   1.0000   1.0000   1.0000
     0.0000   0.0000   0.0000   0.0000   0.0000   0.0000   0.0000   0.0000
     0.0000   0.0000   0.0000   0.0000   0.0000   0.0000   0.0000   0.0000
     0.0000   0.0000   0.0000   0.0000   0.0000   0.0000   0.0000   0.0000
     0.0000   0.0000   0.0000   0.0000   0.0000   0.0000   0.0000   0.0000
     0.0000

          k =-0.2633-0.4388 0.6143 ( 13180 PWs)   bands (ev):

    -5.2555  -4.5057  -4.0256  -3.7202  -3.2319  -3.0162  -2.8286  -2.2645
    -1.0976  -0.6906  -0.4822  -0.4527   0.4653   0.5781   1.0651   1.8524
     2.3306   2.4001   2.6208   3.0332   3.0959   3.1337   3.4174   3.4624
     3.5913   3.9268   4.0149   4.0703   4.3375   4.5227   4.9339   5.4037
     7.4620   7.5498   8.2158   8.2323   8.3157   8.4389   8.5157   8.6415
     8.9252   9.1752   9.2415   9.2714   9.2932   9.7344   9.9006  10.1395
    10.1454  10.1732  10.9072  11.1252  11.1770  11.4032  11.7064  11.8039
    11.8249  11.9007  12.0283  12.4551  12.7057  12.9414  13.0689  13.5134
    13.5953

     occupation numbers 
     1.0000   1.0000   1.0000   1.0000   1.0000   1.0000   1.0000   1.0000
     1.0000   1.0000   1.0000   1.0000   1.0000   1.0000   1.0000   1.0000
     1.0000   1.0000   1.0000   1.0000   1.0000   1.0000   1.0000   1.0000
     1.0000   1.0000   1.0000   1.0000   1.0000   1.0000   1.0000   1.0000
     0.0000   0.0000   0.0000   0.0000   0.0000   0.0000   0.0000   0.0000
     0.0000   0.0000   0.0000   0.0000   0.0000   0.0000   0.0000   0.0000
     0.0000   0.0000   0.0000   0.0000   0.0000   0.0000   0.0000   0.0000
     0.0000   0.0000   0.0000   0.0000   0.0000   0.0000   0.0000   0.0000
     0.0000

          k =-0.1755-0.3510 0.5266 ( 13192 PWs)   bands (ev):

    -4.9191  -4.9191  -3.9172  -3.9172  -3.0625  -3.0625  -2.6521  -2.6521
    -0.8128  -0.8128  -0.3573  -0.3573   0.6623   0.6623   1.9403   1.9403
     2.0812   2.0812   2.3175   2.3175   3.0953   3.0953   3.4765   3.4765
     3.6905   3.6905   3.9314   3.9314   4.2534   4.2534   5.1713   5.1713
     7.8570   7.8570   7.9079   7.9079   8.5506   8.5506   8.5670   8.5670
     9.2373   9.2373   9.7803   9.7803  10.1315  10.1315  10.1694  10.1694
    10.6274  10.6274  10.7534  10.7534  11.1294  11.1294  11.3369  11.3369
    11.6246  11.6246  12.0014  12.0014  12.8348  12.8348  13.0504  13.0504
    13.1419

     occupation numbers 
     1.0000   1.0000   1.0000   1.0000   1.0000   1.0000   1.0000   1.0000
     1.0000   1.0000   1.0000   1.0000   1.0000   1.0000   1.0000   1.0000
     1.0000   1.0000   1.0000   1.0000   1.0000   1.0000   1.0000   1.0000
     1.0000   1.0000   1.0000   1.0000   1.0000   1.0000   1.0000   1.0000
     0.0000   0.0000   0.0000   0.0000   0.0000   0.0000   0.0000   0.0000
     0.0000   0.0000   0.0000   0.0000   0.0000   0.0000   0.0000   0.0000
     0.0000   0.0000   0.0000   0.0000   0.0000   0.0000   0.0000   0.0000
     0.0000   0.0000   0.0000   0.0000   0.0000   0.0000   0.0000   0.0000
     0.0000

          k =-0.1755-0.5266 0.7021 ( 13170 PWs)   bands (ev):

    -5.1708  -4.1859  -4.1859  -4.1318  -3.3348  -3.3348  -2.3699  -2.0410
    -1.2607  -0.9122  -0.2504  -0.2504   0.7653   0.7653   1.2264   1.8914
     2.1697   2.3511   2.3511   2.7149   2.9597   3.1790   3.1906   3.1906
     3.4690   3.7594   4.2199   4.2199   4.3683   4.7673   4.7673   4.9236
     7.2044   7.9191   8.3130   8.4436   8.4436   8.5200   8.8446   8.8446
     9.0809   9.3504   9.3504   9.3649   9.8326  10.0613  10.0613  10.1885
    10.5179  10.5469  10.6821  10.6821  11.1291  11.5862  11.5862  11.6109
    11.6109  12.0525  12.0736  12.3369  12.3825  12.3825  12.7380  13.0049
    13.2778

     occupation numbers 
     1.0000   1.0000   1.0000   1.0000   1.0000   1.0000   1.0000   1.0000
     1.0000   1.0000   1.0000   1.0000   1.0000   1.0000   1.0000   1.0000
     1.0000   1.0000   1.0000   1.0000   1.0000   1.0000   1.0000   1.0000
     1.0000   1.0000   1.0000   1.0000   1.0000   1.0000   1.0000   1.0000
     0.0000   0.0000   0.0000   0.0000   0.0000   0.0000   0.0000   0.0000
     0.0000   0.0000   0.0000   0.0000   0.0000   0.0000   0.0000   0.0000
     0.0000   0.0000   0.0000   0.0000   0.0000   0.0000   0.0000   0.0000
     0.0000   0.0000   0.0000   0.0000   0.0000   0.0000   0.0000   0.0000
     0.0000

          k =-0.0878-0.4388 0.6143 ( 13188 PWs)   bands (ev):

    -4.8642  -4.6181  -4.3499  -4.1211  -3.2357  -2.9001  -2.6248  -2.4193
    -0.9124  -0.6880  -0.5173  -0.1341   0.9618   1.4652   1.6653   1.8247
     1.8482   2.0062   2.1492   2.3109   2.9345   3.0702   3.2171   3.4034
     3.4503   3.7629   3.9021   3.9556   4.0977   4.3281   4.7452   5.0325
     7.7516   8.0964   8.1228   8.5764   8.7216   8.9737   9.1739   9.2778
     9.3152   9.4459   9.6570   9.7628   9.8041   9.8714  10.2461  10.4285
    10.5785  10.6367  10.8150  10.8799  10.9330  10.9610  11.0219  11.0527
    11.6027  11.7651  11.9442  12.1297  12.3199  12.6123  12.8546  12.9492
    13.0330

     occupation numbers 
     1.0000   1.0000   1.0000   1.0000   1.0000   1.0000   1.0000   1.0000
     1.0000   1.0000   1.0000   1.0000   1.0000   1.0000   1.0000   1.0000
     1.0000   1.0000   1.0000   1.0000   1.0000   1.0000   1.0000   1.0000
     1.0000   1.0000   1.0000   1.0000   1.0000   1.0000   1.0000   1.0000
     0.0000   0.0000   0.0000   0.0000   0.0000   0.0000   0.0000   0.0000
     0.0000   0.0000   0.0000   0.0000   0.0000   0.0000   0.0000   0.0000
     0.0000   0.0000   0.0000   0.0000   0.0000   0.0000   0.0000   0.0000
     0.0000   0.0000   0.0000   0.0000   0.0000   0.0000   0.0000   0.0000
     0.0000

          k = 0.0000-0.3510 0.5266 ( 13165 PWs)   bands (ev):

    -4.9801  -4.4750  -4.4750  -3.9652  -3.0667  -2.8395  -2.8395  -2.4758
    -0.8772  -0.6338  -0.6338  -0.2152   0.8954   1.3661   1.3661   1.6924
     2.0846   2.0846   2.2039   2.5057   2.9430   3.3055   3.5546   3.5546
     3.6257   3.6727   3.6727   3.8221   3.8717   4.5215   4.5215   5.2715
     7.7856   8.1270   8.2818   8.2818   8.7941   8.9063   8.9063   9.1412
     9.2416   9.2616   9.7136   9.8152   9.8152   9.8569   9.8569  10.2646
    10.2675  10.4848  10.4848  10.7720  10.9671  11.0200  11.0200  11.3325
    11.9595  11.9595  12.1243  12.6323  12.6420  12.7309  12.9435  12.9435
    13.0628

     occupation numbers 
     1.0000   1.0000   1.0000   1.0000   1.0000   1.0000   1.0000   1.0000
     1.0000   1.0000   1.0000   1.0000   1.0000   1.0000   1.0000   1.0000
     1.0000   1.0000   1.0000   1.0000   1.0000   1.0000   1.0000   1.0000
     1.0000   1.0000   1.0000   1.0000   1.0000   1.0000   1.0000   1.0000
     0.0000   0.0000   0.0000   0.0000   0.0000   0.0000   0.0000   0.0000
     0.0000   0.0000   0.0000   0.0000   0.0000   0.0000   0.0000   0.0000
     0.0000   0.0000   0.0000   0.0000   0.0000   0.0000   0.0000   0.0000
     0.0000   0.0000   0.0000   0.0000   0.0000   0.0000   0.0000   0.0000
     0.0000

          k =-0.7021 0.1755 0.0000 ( 13196 PWs)   bands (ev):

    -4.7125  -4.7125  -4.2347  -4.2347  -3.3402  -3.3402  -2.1949  -2.1949
    -1.0656  -1.0656  -0.0147  -0.0147   1.1200   1.1200   1.9157   1.9157
     1.9908   1.9908   2.2229   2.2229   2.7515   2.7515   2.7714   2.7714
     3.8686   3.8686   4.1768   4.1768   4.2887   4.2887   4.7738   4.7738
     7.5169   7.5169   8.4011   8.4011   9.0030   9.0030   9.3355   9.3355
     9.5597   9.5597   9.5791   9.5791  10.4141  10.4141  10.6496  10.6496
    10.8543  10.8543  10.9818  10.9818  11.0779  11.0779  11.1783  11.1783
    11.6024  11.6024  11.6025  11.6025  11.7815  11.7815  12.2965  12.2965
    12.9795

     occupation numbers 
     1.0000   1.0000   1.0000   1.0000   1.0000   1.0000   1.0000   1.0000
     1.0000   1.0000   1.0000   1.0000   1.0000   1.0000   1.0000   1.0000
     1.0000   1.0000   1.0000   1.0000   1.0000   1.0000   1.0000   1.0000
     1.0000   1.0000   1.0000   1.0000   1.0000   1.0000   1.0000   1.0000
     0.0000   0.0000   0.0000   0.0000   0.0000   0.0000   0.0000   0.0000
     0.0000   0.0000   0.0000   0.0000   0.0000   0.0000   0.0000   0.0000
     0.0000   0.0000   0.0000   0.0000   0.0000   0.0000   0.0000   0.0000
     0.0000   0.0000   0.0000   0.0000   0.0000   0.0000   0.0000   0.0000
     0.0000

          k =-0.7021 0.3510 0.0000 ( 13164 PWs)   bands (ev):

    -4.5312  -4.5312  -4.5312  -4.5312  -2.7828  -2.7828  -2.7828  -2.7828
    -0.5412  -0.5412  -0.5412  -0.5412   1.7086   1.7086   1.7086   1.7086
     1.8486   1.8486   1.8486   1.8486   3.3268   3.3268   3.3268   3.3268
     3.4535   3.4535   3.4535   3.4535   4.5787   4.5787   4.5787   4.5787
     8.4243   8.4243   8.4243   8.4243   8.8473   8.8473   8.8473   8.8473
     9.8031   9.8031   9.8031   9.8031  10.1896  10.1897  10.1897  10.1897
    10.4973  10.4973  10.4973  10.4973  11.1478  11.1478  11.1478  11.1478
    11.4215  11.4215  11.4215  11.4215  12.9453  12.9453  12.9453  12.9453
    13.7414

     occupation numbers 
     1.0000   1.0000   1.0000   1.0000   1.0000   1.0000   1.0000   1.0000
     1.0000   1.0000   1.0000   1.0000   1.0000   1.0000   1.0000   1.0000
     1.0000   1.0000   1.0000   1.0000   1.0000   1.0000   1.0000   1.0000
     1.0000   1.0000   1.0000   1.0000   1.0000   1.0000   1.0000   1.0000
     0.0000   0.0000   0.0000   0.0000   0.0000   0.0000   0.0000   0.0000
     0.0000   0.0000   0.0000   0.0000   0.0000   0.0000   0.0000   0.0000
     0.0000   0.0000   0.0000   0.0000   0.0000   0.0000   0.0000   0.0000
     0.0000   0.0000   0.0000   0.0000   0.0000   0.0000   0.0000   0.0000
     0.0000

     highest occupied, lowest unoccupied level (ev):     5.9809    6.5999

!    total energy              =    -182.72171656 Ry
     Harris-Foulkes estimate   =    -182.72171656 Ry
     estimated scf accuracy    <          1.7E-11 Ry

     The total energy is the sum of the following terms:

     one-electron contribution =      40.01014824 Ry
     hartree contribution      =       8.95427916 Ry
     xc contribution           =     -98.26372344 Ry
     ewald contribution        =    -133.42242051 Ry

     convergence has been achieved in   9 iterations

     Forces acting on atoms (cartesian axes, Ry/au):

     atom    1 type  1   force =     0.00000000   -0.00000000    0.00000000
     atom    2 type  1   force =     0.00000014    0.00000014    0.00000014
     atom    3 type  1   force =     0.00000000   -0.00000000   -0.00000002
     atom    4 type  1   force =    -0.00000014   -0.00000014    0.00000014
     atom    5 type  1   force =     0.00000000   -0.00000002    0.00000000
     atom    6 type  1   force =    -0.00000014    0.00000014   -0.00000014
     atom    7 type  1   force =     0.00000002    0.00000000    0.00000000
     atom    8 type  1   force =    -0.00000005    0.00000005    0.00000005
     atom    9 type  1   force =    -0.00000002    0.00000000    0.00000000
     atom   10 type  1   force =     0.00000014   -0.00000014   -0.00000014
     atom   11 type  1   force =     0.00000000    0.00000002    0.00000000
     atom   12 type  1   force =     0.00000005   -0.00000005    0.00000005
     atom   13 type  1   force =     0.00000000    0.00000000    0.00000002
     atom   14 type  1   force =     0.00000005    0.00000005   -0.00000005
     atom   15 type  1   force =     0.00000000    0.00000000    0.00000000
     atom   16 type  1   force =    -0.00000005   -0.00000005   -0.00000005
     The non-local contrib.  to forces
     atom    1 type  1   force =    -0.00000000    0.00000000   -0.00000000
     atom    2 type  1   force =    -0.00000014   -0.00000014   -0.00000014
     atom    3 type  1   force =    -0.00000000    0.00000000    0.00000011
     atom    4 type  1   force =     0.00000014    0.00000014   -0.00000014
     atom    5 type  1   force =    -0.00000000    0.00000011   -0.00000000
     atom    6 type  1   force =     0.00000014   -0.00000014    0.00000014
     atom    7 type  1   force =    -0.00000011    0.00000000   -0.00000000
     atom    8 type  1   force =     0.00000012   -0.00000012   -0.00000012
     atom    9 type  1   force =     0.00000011    0.00000000    0.00000000
     atom   10 type  1   force =    -0.00000014    0.00000014    0.00000014
     atom   11 type  1   force =     0.00000000   -0.00000011    0.00000000
     atom   12 type  1   force =    -0.00000012    0.00000012   -0.00000012
     atom   13 type  1   force =    -0.00000000   -0.00000000   -0.00000011
     atom   14 type  1   force =    -0.00000012   -0.00000012    0.00000012
     atom   15 type  1   force =    -0.00000000    0.00000000    0.00000000
     atom   16 type  1   force =     0.00000012    0.00000012    0.00000012
     The ionic contribution  to forces
     atom    1 type  1   force =    -0.00000000   -0.00000000   -0.00000000
     atom    2 type  1   force =    -0.00000003   -0.00000003   -0.00000003
     atom    3 type  1   force =     0.00000000    0.00000000   -0.00000015
     atom    4 type  1   force =     0.00000003    0.00000003   -0.00000003
     atom    5 type  1   force =     0.00000000   -0.00000015    0.00000000
     atom    6 type  1   force =     0.00000003   -0.00000003    0.00000003
     atom    7 type  1   force =     0.00000015   -0.00000000   -0.00000000
     atom    8 type  1   force =     0.00000003   -0.00000003   -0.00000003
     atom    9 type  1   force =    -0.00000015    0.00000000   -0.00000000
     atom   10 type  1   force =    -0.00000003    0.00000003    0.00000003
     atom   11 type  1   force =    -0.00000000    0.00000015   -0.00000000
     atom   12 type  1   force =    -0.00000003    0.00000003   -0.00000003
     atom   13 type  1   force =    -0.00000000   -0.00000000    0.00000015
     atom   14 type  1   force =    -0.00000003   -0.00000003    0.00000003
     atom   15 type  1   force =     0.00000000    0.00000000   -0.00000000
     atom   16 type  1   force =     0.00000003    0.00000003    0.00000003
     The local contribution  to forces
     atom    1 type  1   force =    -0.00000000    0.00000000   -0.00000000
     atom    2 type  1   force =     0.00000086    0.00000086    0.00000086
     atom    3 type  1   force =     0.00000000    0.00000000    0.00000138
     atom    4 type  1   force =    -0.00000086   -0.00000086    0.00000086
     atom    5 type  1   force =    -0.00000000    0.00000138    0.00000000
     atom    6 type  1   force =    -0.00000086    0.00000086   -0.00000086
     atom    7 type  1   force =    -0.00000138    0.00000000    0.00000000
     atom    8 type  1   force =     0.00000010   -0.00000010   -0.00000010
     atom    9 type  1   force =     0.00000138   -0.00000000    0.00000000
     atom   10 type  1   force =     0.00000086   -0.00000086   -0.00000086
     atom   11 type  1   force =     0.00000000   -0.00000138   -0.00000000
     atom   12 type  1   force =    -0.00000010    0.00000010   -0.00000010
     atom   13 type  1   force =    -0.00000000    0.00000000   -0.00000138
     atom   14 type  1   force =    -0.00000010   -0.00000010    0.00000010
     atom   15 type  1   force =    -0.00000000    0.00000000    0.00000000
     atom   16 type  1   force =     0.00000010    0.00000010    0.00000010
     The core correction contribution to forces
     atom    1 type  1   force =    -0.00000000   -0.00000000    0.00000000
     atom    2 type  1   force =     0.00000002    0.00000002    0.00000002
     atom    3 type  1   force =    -0.00000000   -0.00000000   -0.00000000
     atom    4 type  1   force =    -0.00000002   -0.00000002    0.00000002
     atom    5 type  1   force =     0.00000000   -0.00000000   -0.00000000
     atom    6 type  1   force =    -0.00000002    0.00000002   -0.00000002
     atom    7 type  1   force =     0.00000000    0.00000000    0.00000000
     atom    8 type  1   force =    -0.00000001    0.00000001    0.00000001
     atom    9 type  1   force =    -0.00000000    0.00000000    0.00000000
     atom   10 type  1   force =     0.00000002   -0.00000002   -0.00000002
     atom   11 type  1   force =     0.00000000    0.00000000    0.00000000
     atom   12 type  1   force =     0.00000001   -0.00000001    0.00000001
     atom   13 type  1   force =    -0.00000000   -0.00000000    0.00000000
     atom   14 type  1   force =     0.00000001    0.00000001   -0.00000001
     atom   15 type  1   force =     0.00000000    0.00000000   -0.00000000
     atom   16 type  1   force =    -0.00000001   -0.00000001   -0.00000001
     The Hubbard contrib.    to forces
     atom    1 type  1   force =     0.00000000    0.00000000    0.00000000
     atom    2 type  1   force =     0.00000000    0.00000000    0.00000000
     atom    3 type  1   force =     0.00000000    0.00000000    0.00000000
     atom    4 type  1   force =     0.00000000    0.00000000    0.00000000
     atom    5 type  1   force =     0.00000000    0.00000000    0.00000000
     atom    6 type  1   force =     0.00000000    0.00000000    0.00000000
     atom    7 type  1   force =     0.00000000    0.00000000    0.00000000
     atom    8 type  1   force =     0.00000000    0.00000000    0.00000000
     atom    9 type  1   force =     0.00000000    0.00000000    0.00000000
     atom   10 type  1   force =     0.00000000    0.00000000    0.00000000
     atom   11 type  1   force =     0.00000000    0.00000000    0.00000000
     atom   12 type  1   force =     0.00000000    0.00000000    0.00000000
     atom   13 type  1   force =     0.00000000    0.00000000    0.00000000
     atom   14 type  1   force =     0.00000000    0.00000000    0.00000000
     atom   15 type  1   force =     0.00000000    0.00000000    0.00000000
     atom   16 type  1   force =     0.00000000    0.00000000    0.00000000
     The SCF correction term to forces
     atom    1 type  1   force =     0.00000000    0.00000000   -0.00000000
     atom    2 type  1   force =    -0.00000056   -0.00000056   -0.00000056
     atom    3 type  1   force =     0.00000000    0.00000000   -0.00000135
     atom    4 type  1   force =     0.00000056    0.00000056   -0.00000056
     atom    5 type  1   force =     0.00000000   -0.00000135   -0.00000000
     atom    6 type  1   force =     0.00000056   -0.00000056    0.00000056
     atom    7 type  1   force =     0.00000135    0.00000000   -0.00000000
     atom    8 type  1   force =    -0.00000029    0.00000029    0.00000029
     atom    9 type  1   force =    -0.00000135    0.00000000   -0.00000000
     atom   10 type  1   force =    -0.00000056    0.00000056    0.00000056
     atom   11 type  1   force =     0.00000000    0.00000135   -0.00000000
     atom   12 type  1   force =     0.00000029   -0.00000029    0.00000029
     atom   13 type  1   force =     0.00000000    0.00000000    0.00000135
     atom   14 type  1   force =     0.00000029    0.00000029   -0.00000029
     atom   15 type  1   force =     0.00000000    0.00000000   -0.00000000
     atom   16 type  1   force =    -0.00000029   -0.00000029   -0.00000029

     Total force =     0.000001     Total SCF correction =     0.000004
     SCF correction compared to forces is large: reduce conv_thr to get better values


     Computing stress (Cartesian axis) and pressure

          total   stress  (Ry/bohr**3)                   (kbar)     P=   -0.05
  -0.00000036   0.00000000   0.00000000         -0.05      0.00      0.00
   0.00000000  -0.00000036  -0.00000000          0.00     -0.05     -0.00
   0.00000000  -0.00000000  -0.00000036          0.00     -0.00     -0.05

     kinetic stress (kbar)   2143.78     -0.00     -0.00
                               -0.00   2143.78     -0.00
                               -0.00     -0.00   2143.78

     local   stress (kbar)     31.31     -0.00     -0.00
                               -0.00     31.31     -0.00
                               -0.00     -0.00     31.31

     nonloc. stress (kbar)   1562.92     -0.00     -0.00
                                0.00   1562.92      0.00
                                0.00      0.00   1562.92

     hartree stress (kbar)    198.83     -0.00      0.00
                               -0.00    198.83      0.00
                                0.00      0.00    198.83

     exc-cor stress (kbar)   2886.76     -0.00      0.00
                               -0.00   2886.76     -0.00
                                0.00     -0.00   2886.76

     corecor stress (kbar)  -3861.00      0.00      0.00
                                0.00  -3861.00     -0.00
                                0.00     -0.00  -3861.00

     ewald   stress (kbar)  -2962.65      0.00      0.00
                                0.00  -2962.65     -0.00
                                0.00     -0.00  -2962.65

     hubbard stress (kbar)      0.00      0.00      0.00
                                0.00      0.00      0.00
                                0.00      0.00      0.00

     london  stress (kbar)      0.00      0.00      0.00
                                0.00      0.00      0.00
                                0.00      0.00      0.00

     DFT-D3  stress (kbar)      0.00      0.00      0.00
                                0.00      0.00      0.00
                                0.00      0.00      0.00

     XDM     stress (kbar)      0.00      0.00      0.00
                                0.00      0.00      0.00
                                0.00      0.00      0.00

     dft-nl  stress (kbar)      0.00      0.00      0.00
                                0.00      0.00      0.00
                                0.00      0.00      0.00

     TS-vdW  stress (kbar)      0.00      0.00      0.00
                                0.00      0.00      0.00
                                0.00      0.00      0.00



     Writing output data file si.save/

     init_run     :      9.42s CPU      9.76s WALL (       1 calls)
     electrons    :    293.24s CPU    300.56s WALL (       1 calls)
     forces       :      5.93s CPU      6.05s WALL (       1 calls)
     stress       :     26.35s CPU     26.60s WALL (       1 calls)

     Called by init_run:
     wfcinit      :      8.10s CPU      8.31s WALL (       1 calls)
     wfcinit:atom :      0.06s CPU      0.05s WALL (      29 calls)
     wfcinit:wfcr :      7.89s CPU      8.09s WALL (      29 calls)
     potinit      :      0.33s CPU      0.35s WALL (       1 calls)
     hinit0       :      0.51s CPU      0.53s WALL (       1 calls)

     Called by electrons:
     c_bands      :    251.28s CPU    256.06s WALL (      10 calls)
     sum_band     :     36.70s CPU     38.46s WALL (      10 calls)
     v_of_rho     :      2.26s CPU      2.33s WALL (      10 calls)
     v_h          :      0.13s CPU      0.15s WALL (      10 calls)
     v_xc         :      2.55s CPU      2.61s WALL (      12 calls)
     newd         :      3.06s CPU      3.83s WALL (      10 calls)
     mix_rho      :      0.28s CPU      0.29s WALL (      10 calls)

     Called by c_bands:
     init_us_2    :      2.87s CPU      2.89s WALL (     667 calls)
     cegterg      :    239.46s CPU    244.22s WALL (     290 calls)

     Called by sum_band:
     sum_band:bec :      0.12s CPU      0.15s WALL (     290 calls)
     addusdens    :      3.78s CPU      4.58s WALL (      10 calls)

     Called by *egterg:
     h_psi        :    153.45s CPU    158.23s WALL (    1244 calls)
     s_psi        :     24.51s CPU     24.54s WALL (    1244 calls)
     g_psi        :      0.66s CPU      0.66s WALL (     925 calls)
     cdiaghg      :     26.62s CPU     26.70s WALL (    1186 calls)
     cegterg:over :     17.22s CPU     17.30s WALL (     925 calls)
     cegterg:upda :     11.51s CPU     11.54s WALL (     925 calls)
     cegterg:last :      5.23s CPU      5.26s WALL (     290 calls)

     Called by h_psi:
     h_psi:pot    :    152.92s CPU    157.57s WALL (    1244 calls)
     h_psi:calbec :     26.19s CPU     26.48s WALL (    1244 calls)
     vloc_psi     :    101.99s CPU    106.36s WALL (    1244 calls)
     add_vuspsi   :     24.73s CPU     24.73s WALL (    1244 calls)

     General routines
     calbec       :     40.47s CPU     40.92s WALL (    1679 calls)
     fft          :      1.64s CPU      1.77s WALL (     154 calls)
     ffts         :      0.04s CPU      0.04s WALL (      20 calls)
     fftw         :    106.96s CPU    111.75s WALL (  114568 calls)
     interpolate  :      0.15s CPU      0.16s WALL (      10 calls)

     Parallel routines
     fft_scatt_xy :     14.16s CPU     14.66s WALL (  114742 calls)
     fft_scatt_yz :     23.00s CPU     24.09s WALL (  114742 calls)

     PWSCF        :   5m35.95s CPU   5m44.41s WALL


   This run was terminated on:  17: 3:16  12Aug2019            

=------------------------------------------------------------------------------=
   JOB DONE.
=------------------------------------------------------------------------------=
