
     Program PWSCF v.6.4.1 starts on 12Aug2019 at 17: 3:16 

     This program is part of the open-source Quantum ESPRESSO suite
     for quantum simulation of materials; please cite
         "P. Giannozzi et al., J. Phys.:Condens. Matter 21 395502 (2009);
         "P. Giannozzi et al., J. Phys.:Condens. Matter 29 465901 (2017);
          URL http://www.quantum-espresso.org", 
     in publications or presentations arising from this work. More details at
     http://www.quantum-espresso.org/quote

     Parallel version (MPI), running on     8 processors

     MPI processes distributed on     1 nodes
     R & G space division:  proc/nbgrp/npool/nimage =       8
     Waiting for input...
     Reading input from standard input

     Current dimensions of program PWSCF are:
     Max number of different atomic species (ntypx) = 10
     Max number of k-points (npk) =  40000
     Max angular momentum in pseudopotentials (lmaxx) =  3

     Atomic positions and unit cell read from directory:
     tmp/si.save/


     Subspace diagonalization in iterative solution of the eigenvalue problem:
     a serial algorithm will be used

     Found symmetry operation: I + (  0.0000  0.0000  0.5000)
     This is a supercell, fractional translations are disabled
     Message from routine setup:
     DEPRECATED: symmetry with ibrav=0, use correct ibrav instead

     Parallelization info
     --------------------
     sticks:   dense  smooth     PW     G-vecs:    dense   smooth      PW
     Min         920     366    102                52137    13173    1947
     Max         921     367    103                52138    13175    1950
     Sum        7363    2929    823               417097   105395   15593



     bravais-lattice index     =            0
     lattice parameter (alat)  =      14.5131  a.u.
     unit-cell volume          =    2208.2871 (a.u.)^3
     number of atoms/cell      =           16
     number of atomic types    =            1
     number of electrons       =        64.00
     number of Kohn-Sham states=           65
     kinetic-energy cutoff     =      50.0000  Ry
     charge density cutoff     =     500.0000  Ry
     Exchange-correlation      = PBE ( 1  4  3  4 0 0)

     celldm(1)=  14.513150  celldm(2)=   0.000000  celldm(3)=   0.000000
     celldm(4)=   0.000000  celldm(5)=   0.000000  celldm(6)=   0.000000

     crystal axes: (cart. coord. in units of alat)
               a(1) = (   0.000000   0.712164   0.712164 )  
               a(2) = (   0.712164   0.000000   0.712164 )  
               a(3) = (   0.712164   0.712164   0.000000 )  

     reciprocal axes: (cart. coord. in units 2 pi/alat)
               b(1) = ( -0.702085  0.702085  0.702085 )  
               b(2) = (  0.702085 -0.702085  0.702085 )  
               b(3) = (  0.702085  0.702085 -0.702085 )  


     PseudoPot. # 1 for Si read from file:
     ./Si.pbe-n-rrkjus_psl.1.0.0.UPF
     MD5 check sum: fa25574f73a70a4139f2adfbefec430c
     Pseudo is Ultrasoft + core correction, Zval =  4.0
     Generated using "atomic" code by A. Dal Corso v.6.3
     Using radial grid of 1141 points,  6 beta functions with: 
                l(1) =   0
                l(2) =   0
                l(3) =   1
                l(4) =   1
                l(5) =   2
                l(6) =   2
     Q(r) pseudized with 0 coefficients 


     atomic species   valence    mass     pseudopotential
        Si             4.00    28.08550     Si( 1.00)

     24 Sym. Ops. (no inversion) found


                                    s                        frac. trans.

      isym =  1     identity                                     

 cryst.   s( 1) = (     1          0          0      )
                  (     0          1          0      )
                  (     0          0          1      )

 cart.    s( 1) = (  1.0000000  0.0000000  0.0000000 )
                  (  0.0000000  1.0000000  0.0000000 )
                  (  0.0000000  0.0000000  1.0000000 )


      isym =  2     180 deg rotation - cart. axis [0,0,1]        

 cryst.   s( 2) = (     0          1         -1      )
                  (     1          0         -1      )
                  (     0          0         -1      )

 cart.    s( 2) = ( -1.0000000  0.0000000  0.0000000 )
                  (  0.0000000 -1.0000000  0.0000000 )
                  (  0.0000000  0.0000000  1.0000000 )


      isym =  3     180 deg rotation - cart. axis [0,1,0]        

 cryst.   s( 3) = (     0         -1          1      )
                  (     0         -1          0      )
                  (     1         -1          0      )

 cart.    s( 3) = ( -1.0000000  0.0000000  0.0000000 )
                  (  0.0000000  1.0000000  0.0000000 )
                  (  0.0000000  0.0000000 -1.0000000 )


      isym =  4     180 deg rotation - cart. axis [1,0,0]        

 cryst.   s( 4) = (    -1          0          0      )
                  (    -1          0          1      )
                  (    -1          1          0      )

 cart.    s( 4) = (  1.0000000  0.0000000  0.0000000 )
                  (  0.0000000 -1.0000000  0.0000000 )
                  (  0.0000000  0.0000000 -1.0000000 )


      isym =  5     120 deg rotation - cart. axis [-1,-1,-1]     

 cryst.   s( 5) = (     0          0          1      )
                  (     1          0          0      )
                  (     0          1          0      )

 cart.    s( 5) = (  0.0000000  1.0000000  0.0000000 )
                  (  0.0000000  0.0000000  1.0000000 )
                  (  1.0000000  0.0000000  0.0000000 )


      isym =  6     120 deg rotation - cart. axis [-1,1,1]       

 cryst.   s( 6) = (     1         -1          0      )
                  (     0         -1          1      )
                  (     0         -1          0      )

 cart.    s( 6) = (  0.0000000 -1.0000000  0.0000000 )
                  (  0.0000000  0.0000000  1.0000000 )
                  ( -1.0000000  0.0000000  0.0000000 )


      isym =  7     120 deg rotation - cart. axis [1,1,-1]       

 cryst.   s( 7) = (    -1          1          0      )
                  (    -1          0          0      )
                  (    -1          0          1      )

 cart.    s( 7) = (  0.0000000  1.0000000  0.0000000 )
                  (  0.0000000  0.0000000 -1.0000000 )
                  ( -1.0000000  0.0000000  0.0000000 )


      isym =  8     120 deg rotation - cart. axis [1,-1,1]       

 cryst.   s( 8) = (     0          0         -1      )
                  (     0          1         -1      )
                  (     1          0         -1      )

 cart.    s( 8) = (  0.0000000 -1.0000000  0.0000000 )
                  (  0.0000000  0.0000000 -1.0000000 )
                  (  1.0000000  0.0000000  0.0000000 )


      isym =  9     120 deg rotation - cart. axis [1,1,1]        

 cryst.   s( 9) = (     0          1          0      )
                  (     0          0          1      )
                  (     1          0          0      )

 cart.    s( 9) = (  0.0000000  0.0000000  1.0000000 )
                  (  1.0000000  0.0000000  0.0000000 )
                  (  0.0000000  1.0000000  0.0000000 )


      isym = 10     120 deg rotation - cart. axis [-1,1,-1]      

 cryst.   s(10) = (    -1          0          1      )
                  (    -1          1          0      )
                  (    -1          0          0      )

 cart.    s(10) = (  0.0000000  0.0000000  1.0000000 )
                  ( -1.0000000  0.0000000  0.0000000 )
                  (  0.0000000 -1.0000000  0.0000000 )


      isym = 11     120 deg rotation - cart. axis [1,-1,-1]      

 cryst.   s(11) = (     1          0         -1      )
                  (     0          0         -1      )
                  (     0          1         -1      )

 cart.    s(11) = (  0.0000000  0.0000000 -1.0000000 )
                  ( -1.0000000  0.0000000  0.0000000 )
                  (  0.0000000  1.0000000  0.0000000 )


      isym = 12     120 deg rotation - cart. axis [-1,-1,1]      

 cryst.   s(12) = (     0         -1          0      )
                  (     1         -1          0      )
                  (     0         -1          1      )

 cart.    s(12) = (  0.0000000  0.0000000 -1.0000000 )
                  (  1.0000000  0.0000000  0.0000000 )
                  (  0.0000000 -1.0000000  0.0000000 )


      isym = 13     inv. 180 deg rotation - cart. axis [1,1,0]   

 cryst.   s(13) = (     1          0         -1      )
                  (     0          1         -1      )
                  (     0          0         -1      )

 cart.    s(13) = (  0.0000000 -1.0000000  0.0000000 )
                  ( -1.0000000  0.0000000  0.0000000 )
                  (  0.0000000  0.0000000  1.0000000 )


      isym = 14     inv. 180 deg rotation - cart. axis [1,-1,0]  

 cryst.   s(14) = (     0          1          0      )
                  (     1          0          0      )
                  (     0          0          1      )

 cart.    s(14) = (  0.0000000  1.0000000  0.0000000 )
                  (  1.0000000  0.0000000  0.0000000 )
                  (  0.0000000  0.0000000  1.0000000 )


      isym = 15     inv.  90 deg rotation - cart. axis [0,0,-1]  

 cryst.   s(15) = (     0         -1          0      )
                  (     0         -1          1      )
                  (     1         -1          0      )

 cart.    s(15) = (  0.0000000 -1.0000000  0.0000000 )
                  (  1.0000000  0.0000000  0.0000000 )
                  (  0.0000000  0.0000000 -1.0000000 )


      isym = 16     inv.  90 deg rotation - cart. axis [0,0,1]   

 cryst.   s(16) = (    -1          0          1      )
                  (    -1          0          0      )
                  (    -1          1          0      )

 cart.    s(16) = (  0.0000000  1.0000000  0.0000000 )
                  ( -1.0000000  0.0000000  0.0000000 )
                  (  0.0000000  0.0000000 -1.0000000 )


      isym = 17     inv. 180 deg rotation - cart. axis [1,0,1]   

 cryst.   s(17) = (     1         -1          0      )
                  (     0         -1          0      )
                  (     0         -1          1      )

 cart.    s(17) = (  0.0000000  0.0000000 -1.0000000 )
                  (  0.0000000  1.0000000  0.0000000 )
                  ( -1.0000000  0.0000000  0.0000000 )


      isym = 18     inv. 180 deg rotation - cart. axis [-1,0,1]  

 cryst.   s(18) = (     0          0          1      )
                  (     0          1          0      )
                  (     1          0          0      )

 cart.    s(18) = (  0.0000000  0.0000000  1.0000000 )
                  (  0.0000000  1.0000000  0.0000000 )
                  (  1.0000000  0.0000000  0.0000000 )


      isym = 19     inv.  90 deg rotation - cart. axis [0,1,0]   

 cryst.   s(19) = (     0          0         -1      )
                  (     1          0         -1      )
                  (     0          1         -1      )

 cart.    s(19) = (  0.0000000  0.0000000 -1.0000000 )
                  (  0.0000000 -1.0000000  0.0000000 )
                  (  1.0000000  0.0000000  0.0000000 )


      isym = 20     inv.  90 deg rotation - cart. axis [0,-1,0]  

 cryst.   s(20) = (    -1          1          0      )
                  (    -1          0          1      )
                  (    -1          0          0      )

 cart.    s(20) = (  0.0000000  0.0000000  1.0000000 )
                  (  0.0000000 -1.0000000  0.0000000 )
                  ( -1.0000000  0.0000000  0.0000000 )


      isym = 21     inv. 180 deg rotation - cart. axis [0,1,1]   

 cryst.   s(21) = (    -1          0          0      )
                  (    -1          1          0      )
                  (    -1          0          1      )

 cart.    s(21) = (  1.0000000  0.0000000  0.0000000 )
                  (  0.0000000  0.0000000 -1.0000000 )
                  (  0.0000000 -1.0000000  0.0000000 )


      isym = 22     inv. 180 deg rotation - cart. axis [0,1,-1]  

 cryst.   s(22) = (     1          0          0      )
                  (     0          0          1      )
                  (     0          1          0      )

 cart.    s(22) = (  1.0000000  0.0000000  0.0000000 )
                  (  0.0000000  0.0000000  1.0000000 )
                  (  0.0000000  1.0000000  0.0000000 )


      isym = 23     inv.  90 deg rotation - cart. axis [-1,0,0]  

 cryst.   s(23) = (     0          1         -1      )
                  (     0          0         -1      )
                  (     1          0         -1      )

 cart.    s(23) = ( -1.0000000  0.0000000  0.0000000 )
                  (  0.0000000  0.0000000 -1.0000000 )
                  (  0.0000000  1.0000000  0.0000000 )


      isym = 24     inv.  90 deg rotation - cart. axis [1,0,0]   

 cryst.   s(24) = (     0         -1          1      )
                  (     1         -1          0      )
                  (     0         -1          0      )

 cart.    s(24) = ( -1.0000000  0.0000000  0.0000000 )
                  (  0.0000000  0.0000000  1.0000000 )
                  (  0.0000000 -1.0000000  0.0000000 )


   Cartesian axes

     site n.     atom                  positions (alat units)
         1           Si  tau(   1) = (   0.0000000   0.0000000   0.0000000  )
         2           Si  tau(   2) = (   0.1780411   0.1780411   0.1780411  )
         3           Si  tau(   3) = (   0.3560821   0.3560821   0.0000000  )
         4           Si  tau(   4) = (   0.5341232   0.5341232   0.1780411  )
         5           Si  tau(   5) = (   0.3560821   0.0000000   0.3560821  )
         6           Si  tau(   6) = (   0.5341232   0.1780411   0.5341232  )
         7           Si  tau(   7) = (   0.7121642   0.3560821   0.3560821  )
         8           Si  tau(   8) = (   0.8902053   0.5341232   0.5341232  )
         9           Si  tau(   9) = (   0.0000000   0.3560821   0.3560821  )
        10           Si  tau(  10) = (   0.1780411   0.5341232   0.5341232  )
        11           Si  tau(  11) = (   0.3560821   0.7121642   0.3560821  )
        12           Si  tau(  12) = (   0.5341232   0.8902053   0.5341232  )
        13           Si  tau(  13) = (   0.3560821   0.3560821   0.7121642  )
        14           Si  tau(  14) = (   0.5341232   0.5341232   0.8902053  )
        15           Si  tau(  15) = (   0.7121642   0.7121642   0.7121642  )
        16           Si  tau(  16) = (   0.8902053   0.8902053   0.8902053  )

   Crystallographic axes

     site n.     atom                  positions (cryst. coord.)
         1           Si  tau(   1) = (  0.0000000  0.0000000  0.0000000  )
         2           Si  tau(   2) = (  0.1250000  0.1250000  0.1250000  )
         3           Si  tau(   3) = (  0.0000000  0.0000000  0.5000000  )
         4           Si  tau(   4) = (  0.1250000  0.1250000  0.6250000  )
         5           Si  tau(   5) = (  0.0000000  0.5000000  0.0000000  )
         6           Si  tau(   6) = (  0.1250000  0.6250000  0.1250000  )
         7           Si  tau(   7) = (  0.0000000  0.5000000  0.5000000  )
         8           Si  tau(   8) = (  0.1250000  0.6250000  0.6250000  )
         9           Si  tau(   9) = (  0.5000000  0.0000000  0.0000000  )
        10           Si  tau(  10) = (  0.6250000  0.1250000  0.1250000  )
        11           Si  tau(  11) = (  0.5000000  0.0000000  0.5000000  )
        12           Si  tau(  12) = (  0.6250000  0.1250000  0.6250000  )
        13           Si  tau(  13) = (  0.5000000  0.5000000  0.0000000  )
        14           Si  tau(  14) = (  0.6250000  0.6250000  0.1250000  )
        15           Si  tau(  15) = (  0.5000000  0.5000000  0.5000000  )
        16           Si  tau(  16) = (  0.6250000  0.6250000  0.6250000  )

     number of k points=   145 (tetrahedron method)
                       cart. coord. in units 2pi/alat
        k(    1) = (   0.0000000   0.0000000   0.0000000), wk =   0.0004883
        k(    2) = (   0.0438803   0.0438803  -0.0438803), wk =   0.0039062
        k(    3) = (   0.0877607   0.0877607  -0.0877607), wk =   0.0039062
        k(    4) = (   0.1316410   0.1316410  -0.1316410), wk =   0.0039062
        k(    5) = (   0.1755213   0.1755213  -0.1755213), wk =   0.0039062
        k(    6) = (   0.2194016   0.2194016  -0.2194016), wk =   0.0039062
        k(    7) = (   0.2632820   0.2632820  -0.2632820), wk =   0.0039062
        k(    8) = (   0.3071623   0.3071623  -0.3071623), wk =   0.0039062
        k(    9) = (  -0.3510426  -0.3510426   0.3510426), wk =   0.0019531
        k(   10) = (   0.0877607   0.0000000   0.0000000), wk =   0.0029297
        k(   11) = (   0.1316410   0.0438803  -0.0438803), wk =   0.0117188
        k(   12) = (   0.1755213   0.0877607  -0.0877607), wk =   0.0117188
        k(   13) = (   0.2194016   0.1316410  -0.1316410), wk =   0.0117188
        k(   14) = (   0.2632820   0.1755213  -0.1755213), wk =   0.0117188
        k(   15) = (   0.3071623   0.2194016  -0.2194016), wk =   0.0117188
        k(   16) = (   0.3510426   0.2632820  -0.2632820), wk =   0.0117188
        k(   17) = (  -0.3071623  -0.3949229   0.3949229), wk =   0.0117188
        k(   18) = (  -0.2632820  -0.3510426   0.3510426), wk =   0.0117188
        k(   19) = (  -0.2194016  -0.3071623   0.3071623), wk =   0.0117188
        k(   20) = (  -0.1755213  -0.2632820   0.2632820), wk =   0.0117188
        k(   21) = (  -0.1316410  -0.2194016   0.2194016), wk =   0.0117188
        k(   22) = (  -0.0877607  -0.1755213   0.1755213), wk =   0.0117188
        k(   23) = (  -0.0438803  -0.1316410   0.1316410), wk =   0.0117188
        k(   24) = (   0.0000000  -0.0877607   0.0877607), wk =   0.0058594
        k(   25) = (   0.1755213   0.0000000   0.0000000), wk =   0.0029297
        k(   26) = (   0.2194016   0.0438803  -0.0438803), wk =   0.0117188
        k(   27) = (   0.2632820   0.0877607  -0.0877607), wk =   0.0117188
        k(   28) = (   0.3071623   0.1316410  -0.1316410), wk =   0.0117188
        k(   29) = (   0.3510426   0.1755213  -0.1755213), wk =   0.0117188
        k(   30) = (   0.3949229   0.2194016  -0.2194016), wk =   0.0117188
        k(   31) = (  -0.2632820  -0.4388033   0.4388033), wk =   0.0117188
        k(   32) = (  -0.2194016  -0.3949229   0.3949229), wk =   0.0117188
        k(   33) = (  -0.1755213  -0.3510426   0.3510426), wk =   0.0117188
        k(   34) = (  -0.1316410  -0.3071623   0.3071623), wk =   0.0117188
        k(   35) = (  -0.0877607  -0.2632820   0.2632820), wk =   0.0117188
        k(   36) = (  -0.0438803  -0.2194016   0.2194016), wk =   0.0117188
        k(   37) = (   0.0000000  -0.1755213   0.1755213), wk =   0.0058594
        k(   38) = (   0.2632820   0.0000000   0.0000000), wk =   0.0029297
        k(   39) = (   0.3071623   0.0438803  -0.0438803), wk =   0.0117188
        k(   40) = (   0.3510426   0.0877607  -0.0877607), wk =   0.0117188
        k(   41) = (   0.3949229   0.1316410  -0.1316410), wk =   0.0117188
        k(   42) = (   0.4388033   0.1755213  -0.1755213), wk =   0.0117188
        k(   43) = (  -0.2194016  -0.4826836   0.4826836), wk =   0.0117188
        k(   44) = (  -0.1755213  -0.4388033   0.4388033), wk =   0.0117188
        k(   45) = (  -0.1316410  -0.3949229   0.3949229), wk =   0.0117188
        k(   46) = (  -0.0877607  -0.3510426   0.3510426), wk =   0.0117188
        k(   47) = (  -0.0438803  -0.3071623   0.3071623), wk =   0.0117188
        k(   48) = (   0.0000000  -0.2632820   0.2632820), wk =   0.0058594
        k(   49) = (   0.3510426   0.0000000   0.0000000), wk =   0.0029297
        k(   50) = (   0.3949229   0.0438803  -0.0438803), wk =   0.0117188
        k(   51) = (   0.4388033   0.0877607  -0.0877607), wk =   0.0117188
        k(   52) = (   0.4826836   0.1316410  -0.1316410), wk =   0.0117188
        k(   53) = (  -0.1755213  -0.5265639   0.5265639), wk =   0.0117188
        k(   54) = (  -0.1316410  -0.4826836   0.4826836), wk =   0.0117188
        k(   55) = (  -0.0877607  -0.4388033   0.4388033), wk =   0.0117188
        k(   56) = (  -0.0438803  -0.3949229   0.3949229), wk =   0.0117188
        k(   57) = (   0.0000000  -0.3510426   0.3510426), wk =   0.0058594
        k(   58) = (   0.4388033   0.0000000   0.0000000), wk =   0.0029297
        k(   59) = (   0.4826836   0.0438803  -0.0438803), wk =   0.0117188
        k(   60) = (   0.5265639   0.0877607  -0.0877607), wk =   0.0117188
        k(   61) = (  -0.1316410  -0.5704443   0.5704443), wk =   0.0117188
        k(   62) = (  -0.0877607  -0.5265639   0.5265639), wk =   0.0117188
        k(   63) = (  -0.0438803  -0.4826836   0.4826836), wk =   0.0117188
        k(   64) = (   0.0000000  -0.4388033   0.4388033), wk =   0.0058594
        k(   65) = (   0.5265639   0.0000000   0.0000000), wk =   0.0029297
        k(   66) = (   0.5704443   0.0438803  -0.0438803), wk =   0.0117188
        k(   67) = (  -0.0877607  -0.6143246   0.6143246), wk =   0.0117188
        k(   68) = (  -0.0438803  -0.5704443   0.5704443), wk =   0.0117188
        k(   69) = (   0.0000000  -0.5265639   0.5265639), wk =   0.0058594
        k(   70) = (   0.6143246   0.0000000   0.0000000), wk =   0.0029297
        k(   71) = (  -0.0438803  -0.6582049   0.6582049), wk =   0.0117188
        k(   72) = (   0.0000000  -0.6143246   0.6143246), wk =   0.0058594
        k(   73) = (  -0.7020852   0.0000000   0.0000000), wk =   0.0014648
        k(   74) = (   0.1755213   0.0877607   0.0000000), wk =   0.0117188
        k(   75) = (   0.2194016   0.1316410  -0.0438803), wk =   0.0234375
        k(   76) = (   0.2632820   0.1755213  -0.0877607), wk =   0.0234375
        k(   77) = (   0.3071623   0.2194016  -0.1316410), wk =   0.0234375
        k(   78) = (   0.3510426   0.2632820  -0.1755213), wk =   0.0234375
        k(   79) = (  -0.3071623  -0.3949229   0.4826836), wk =   0.0234375
        k(   80) = (  -0.2632820  -0.3510426   0.4388033), wk =   0.0117188
        k(   81) = (   0.2632820   0.0877607   0.0000000), wk =   0.0117188
        k(   82) = (   0.3071623   0.1316410  -0.0438803), wk =   0.0234375
        k(   83) = (   0.3510426   0.1755213  -0.0877607), wk =   0.0234375
        k(   84) = (   0.3949229   0.2194016  -0.1316410), wk =   0.0234375
        k(   85) = (  -0.2632820  -0.4388033   0.5265639), wk =   0.0234375
        k(   86) = (  -0.2194016  -0.3949229   0.4826836), wk =   0.0234375
        k(   87) = (  -0.1755213  -0.3510426   0.4388033), wk =   0.0234375
        k(   88) = (  -0.1316410  -0.3071623   0.3949229), wk =   0.0234375
        k(   89) = (  -0.0877607  -0.2632820   0.3510426), wk =   0.0234375
        k(   90) = (  -0.0438803  -0.2194016   0.3071623), wk =   0.0234375
        k(   91) = (   0.0000000  -0.1755213   0.2632820), wk =   0.0117188
        k(   92) = (   0.3510426   0.0877607   0.0000000), wk =   0.0117188
        k(   93) = (   0.3949229   0.1316410  -0.0438803), wk =   0.0234375
        k(   94) = (   0.4388033   0.1755213  -0.0877607), wk =   0.0234375
        k(   95) = (  -0.2194016  -0.4826836   0.5704443), wk =   0.0234375
        k(   96) = (  -0.1755213  -0.4388033   0.5265639), wk =   0.0234375
        k(   97) = (  -0.1316410  -0.3949229   0.4826836), wk =   0.0234375
        k(   98) = (  -0.0877607  -0.3510426   0.4388033), wk =   0.0234375
        k(   99) = (  -0.0438803  -0.3071623   0.3949229), wk =   0.0234375
        k(  100) = (   0.0000000  -0.2632820   0.3510426), wk =   0.0117188
        k(  101) = (   0.4388033   0.0877607  -0.0000000), wk =   0.0117188
        k(  102) = (   0.4826836   0.1316410  -0.0438803), wk =   0.0234375
        k(  103) = (  -0.1755213  -0.5265639   0.6143246), wk =   0.0234375
        k(  104) = (  -0.1316410  -0.4826836   0.5704443), wk =   0.0234375
        k(  105) = (  -0.0877607  -0.4388033   0.5265639), wk =   0.0234375
        k(  106) = (  -0.0438803  -0.3949229   0.4826836), wk =   0.0234375
        k(  107) = (   0.0000000  -0.3510426   0.4388033), wk =   0.0117188
        k(  108) = (   0.5265639   0.0877607   0.0000000), wk =   0.0117188
        k(  109) = (  -0.1316410  -0.5704443   0.6582049), wk =   0.0234375
        k(  110) = (  -0.0877607  -0.5265639   0.6143246), wk =   0.0234375
        k(  111) = (  -0.0438803  -0.4826836   0.5704443), wk =   0.0234375
        k(  112) = (   0.0000000  -0.4388033   0.5265639), wk =   0.0117188
        k(  113) = (  -0.0877607  -0.6143246   0.7020852), wk =   0.0117188
        k(  114) = (  -0.0438803  -0.5704443   0.6582049), wk =   0.0234375
        k(  115) = (   0.0000000  -0.5265639   0.6143246), wk =   0.0117188
        k(  116) = (  -0.7020852   0.0877607   0.0000000), wk =   0.0058594
        k(  117) = (   0.3510426   0.1755213   0.0000000), wk =   0.0117188
        k(  118) = (   0.3949229   0.2194016  -0.0438803), wk =   0.0234375
        k(  119) = (  -0.2632820  -0.4388033   0.6143246), wk =   0.0234375
        k(  120) = (  -0.2194016  -0.3949229   0.5704443), wk =   0.0234375
        k(  121) = (  -0.1755213  -0.3510426   0.5265639), wk =   0.0117188
        k(  122) = (   0.4388033   0.1755213  -0.0000000), wk =   0.0117188
        k(  123) = (  -0.2194016  -0.4826836   0.6582049), wk =   0.0234375
        k(  124) = (  -0.1755213  -0.4388033   0.6143246), wk =   0.0234375
        k(  125) = (  -0.1316410  -0.3949229   0.5704443), wk =   0.0234375
        k(  126) = (  -0.0877607  -0.3510426   0.5265639), wk =   0.0234375
        k(  127) = (  -0.0438803  -0.3071623   0.4826836), wk =   0.0234375
        k(  128) = (  -0.0000000  -0.2632820   0.4388033), wk =   0.0117188
        k(  129) = (  -0.1755213  -0.5265639   0.7020852), wk =   0.0117188
        k(  130) = (  -0.1316410  -0.4826836   0.6582049), wk =   0.0234375
        k(  131) = (  -0.0877607  -0.4388033   0.6143246), wk =   0.0234375
        k(  132) = (  -0.0438803  -0.3949229   0.5704443), wk =   0.0234375
        k(  133) = (   0.0000000  -0.3510426   0.5265639), wk =   0.0117188
        k(  134) = (  -0.0877607  -0.5265639   0.7020852), wk =   0.0117188
        k(  135) = (  -0.0438803  -0.4826836   0.6582049), wk =   0.0234375
        k(  136) = (   0.0000000  -0.4388033   0.6143246), wk =   0.0117188
        k(  137) = (  -0.7020852   0.1755213   0.0000000), wk =   0.0058594
        k(  138) = (  -0.1755213  -0.4388033   0.7020852), wk =   0.0117188
        k(  139) = (  -0.1316410  -0.3949229   0.6582049), wk =   0.0234375
        k(  140) = (  -0.0877607  -0.3510426   0.6143246), wk =   0.0117188
        k(  141) = (  -0.0877607  -0.4388033   0.7020852), wk =   0.0117188
        k(  142) = (  -0.0438803  -0.3949229   0.6582049), wk =   0.0234375
        k(  143) = (  -0.0000000  -0.3510426   0.6143246), wk =   0.0117188
        k(  144) = (  -0.7020852   0.2632820   0.0000000), wk =   0.0058594
        k(  145) = (  -0.7020852   0.3510426   0.0000000), wk =   0.0029297

                       cryst. coord.
        k(    1) = (   0.0000000   0.0000000   0.0000000), wk =   0.0004883
        k(    2) = (   0.0000000   0.0000000   0.0625000), wk =   0.0039062
        k(    3) = (   0.0000000   0.0000000   0.1250000), wk =   0.0039062
        k(    4) = (   0.0000000   0.0000000   0.1875000), wk =   0.0039062
        k(    5) = (   0.0000000   0.0000000   0.2500000), wk =   0.0039062
        k(    6) = (   0.0000000   0.0000000   0.3125000), wk =   0.0039062
        k(    7) = (   0.0000000   0.0000000   0.3750000), wk =   0.0039062
        k(    8) = (   0.0000000   0.0000000   0.4375000), wk =   0.0039062
        k(    9) = (   0.0000000   0.0000000  -0.5000000), wk =   0.0019531
        k(   10) = (   0.0000000   0.0625000   0.0625000), wk =   0.0029297
        k(   11) = (   0.0000000   0.0625000   0.1250000), wk =   0.0117188
        k(   12) = (   0.0000000   0.0625000   0.1875000), wk =   0.0117188
        k(   13) = (   0.0000000   0.0625000   0.2500000), wk =   0.0117188
        k(   14) = (   0.0000000   0.0625000   0.3125000), wk =   0.0117188
        k(   15) = (   0.0000000   0.0625000   0.3750000), wk =   0.0117188
        k(   16) = (   0.0000000   0.0625000   0.4375000), wk =   0.0117188
        k(   17) = (   0.0000000   0.0625000  -0.5000000), wk =   0.0117188
        k(   18) = (   0.0000000   0.0625000  -0.4375000), wk =   0.0117188
        k(   19) = (   0.0000000   0.0625000  -0.3750000), wk =   0.0117188
        k(   20) = (   0.0000000   0.0625000  -0.3125000), wk =   0.0117188
        k(   21) = (   0.0000000   0.0625000  -0.2500000), wk =   0.0117188
        k(   22) = (   0.0000000   0.0625000  -0.1875000), wk =   0.0117188
        k(   23) = (   0.0000000   0.0625000  -0.1250000), wk =   0.0117188
        k(   24) = (   0.0000000   0.0625000  -0.0625000), wk =   0.0058594
        k(   25) = (   0.0000000   0.1250000   0.1250000), wk =   0.0029297
        k(   26) = (   0.0000000   0.1250000   0.1875000), wk =   0.0117188
        k(   27) = (   0.0000000   0.1250000   0.2500000), wk =   0.0117188
        k(   28) = (   0.0000000   0.1250000   0.3125000), wk =   0.0117188
        k(   29) = (   0.0000000   0.1250000   0.3750000), wk =   0.0117188
        k(   30) = (   0.0000000   0.1250000   0.4375000), wk =   0.0117188
        k(   31) = (   0.0000000   0.1250000  -0.5000000), wk =   0.0117188
        k(   32) = (   0.0000000   0.1250000  -0.4375000), wk =   0.0117188
        k(   33) = (   0.0000000   0.1250000  -0.3750000), wk =   0.0117188
        k(   34) = (   0.0000000   0.1250000  -0.3125000), wk =   0.0117188
        k(   35) = (   0.0000000   0.1250000  -0.2500000), wk =   0.0117188
        k(   36) = (   0.0000000   0.1250000  -0.1875000), wk =   0.0117188
        k(   37) = (   0.0000000   0.1250000  -0.1250000), wk =   0.0058594
        k(   38) = (   0.0000000   0.1875000   0.1875000), wk =   0.0029297
        k(   39) = (   0.0000000   0.1875000   0.2500000), wk =   0.0117188
        k(   40) = (   0.0000000   0.1875000   0.3125000), wk =   0.0117188
        k(   41) = (   0.0000000   0.1875000   0.3750000), wk =   0.0117188
        k(   42) = (   0.0000000   0.1875000   0.4375000), wk =   0.0117188
        k(   43) = (   0.0000000   0.1875000  -0.5000000), wk =   0.0117188
        k(   44) = (   0.0000000   0.1875000  -0.4375000), wk =   0.0117188
        k(   45) = (   0.0000000   0.1875000  -0.3750000), wk =   0.0117188
        k(   46) = (   0.0000000   0.1875000  -0.3125000), wk =   0.0117188
        k(   47) = (   0.0000000   0.1875000  -0.2500000), wk =   0.0117188
        k(   48) = (   0.0000000   0.1875000  -0.1875000), wk =   0.0058594
        k(   49) = (   0.0000000   0.2500000   0.2500000), wk =   0.0029297
        k(   50) = (   0.0000000   0.2500000   0.3125000), wk =   0.0117188
        k(   51) = (   0.0000000   0.2500000   0.3750000), wk =   0.0117188
        k(   52) = (   0.0000000   0.2500000   0.4375000), wk =   0.0117188
        k(   53) = (   0.0000000   0.2500000  -0.5000000), wk =   0.0117188
        k(   54) = (   0.0000000   0.2500000  -0.4375000), wk =   0.0117188
        k(   55) = (   0.0000000   0.2500000  -0.3750000), wk =   0.0117188
        k(   56) = (   0.0000000   0.2500000  -0.3125000), wk =   0.0117188
        k(   57) = (   0.0000000   0.2500000  -0.2500000), wk =   0.0058594
        k(   58) = (   0.0000000   0.3125000   0.3125000), wk =   0.0029297
        k(   59) = (   0.0000000   0.3125000   0.3750000), wk =   0.0117188
        k(   60) = (   0.0000000   0.3125000   0.4375000), wk =   0.0117188
        k(   61) = (   0.0000000   0.3125000  -0.5000000), wk =   0.0117188
        k(   62) = (   0.0000000   0.3125000  -0.4375000), wk =   0.0117188
        k(   63) = (   0.0000000   0.3125000  -0.3750000), wk =   0.0117188
        k(   64) = (   0.0000000   0.3125000  -0.3125000), wk =   0.0058594
        k(   65) = (   0.0000000   0.3750000   0.3750000), wk =   0.0029297
        k(   66) = (   0.0000000   0.3750000   0.4375000), wk =   0.0117188
        k(   67) = (   0.0000000   0.3750000  -0.5000000), wk =   0.0117188
        k(   68) = (   0.0000000   0.3750000  -0.4375000), wk =   0.0117188
        k(   69) = (   0.0000000   0.3750000  -0.3750000), wk =   0.0058594
        k(   70) = (   0.0000000   0.4375000   0.4375000), wk =   0.0029297
        k(   71) = (   0.0000000   0.4375000  -0.5000000), wk =   0.0117188
        k(   72) = (   0.0000000   0.4375000  -0.4375000), wk =   0.0058594
        k(   73) = (   0.0000000  -0.5000000  -0.5000000), wk =   0.0014648
        k(   74) = (   0.0625000   0.1250000   0.1875000), wk =   0.0117188
        k(   75) = (   0.0625000   0.1250000   0.2500000), wk =   0.0234375
        k(   76) = (   0.0625000   0.1250000   0.3125000), wk =   0.0234375
        k(   77) = (   0.0625000   0.1250000   0.3750000), wk =   0.0234375
        k(   78) = (   0.0625000   0.1250000   0.4375000), wk =   0.0234375
        k(   79) = (   0.0625000   0.1250000  -0.5000000), wk =   0.0234375
        k(   80) = (   0.0625000   0.1250000  -0.4375000), wk =   0.0117188
        k(   81) = (   0.0625000   0.1875000   0.2500000), wk =   0.0117188
        k(   82) = (   0.0625000   0.1875000   0.3125000), wk =   0.0234375
        k(   83) = (   0.0625000   0.1875000   0.3750000), wk =   0.0234375
        k(   84) = (   0.0625000   0.1875000   0.4375000), wk =   0.0234375
        k(   85) = (   0.0625000   0.1875000  -0.5000000), wk =   0.0234375
        k(   86) = (   0.0625000   0.1875000  -0.4375000), wk =   0.0234375
        k(   87) = (   0.0625000   0.1875000  -0.3750000), wk =   0.0234375
        k(   88) = (   0.0625000   0.1875000  -0.3125000), wk =   0.0234375
        k(   89) = (   0.0625000   0.1875000  -0.2500000), wk =   0.0234375
        k(   90) = (   0.0625000   0.1875000  -0.1875000), wk =   0.0234375
        k(   91) = (   0.0625000   0.1875000  -0.1250000), wk =   0.0117188
        k(   92) = (   0.0625000   0.2500000   0.3125000), wk =   0.0117188
        k(   93) = (   0.0625000   0.2500000   0.3750000), wk =   0.0234375
        k(   94) = (   0.0625000   0.2500000   0.4375000), wk =   0.0234375
        k(   95) = (   0.0625000   0.2500000  -0.5000000), wk =   0.0234375
        k(   96) = (   0.0625000   0.2500000  -0.4375000), wk =   0.0234375
        k(   97) = (   0.0625000   0.2500000  -0.3750000), wk =   0.0234375
        k(   98) = (   0.0625000   0.2500000  -0.3125000), wk =   0.0234375
        k(   99) = (   0.0625000   0.2500000  -0.2500000), wk =   0.0234375
        k(  100) = (   0.0625000   0.2500000  -0.1875000), wk =   0.0117188
        k(  101) = (   0.0625000   0.3125000   0.3750000), wk =   0.0117188
        k(  102) = (   0.0625000   0.3125000   0.4375000), wk =   0.0234375
        k(  103) = (   0.0625000   0.3125000  -0.5000000), wk =   0.0234375
        k(  104) = (   0.0625000   0.3125000  -0.4375000), wk =   0.0234375
        k(  105) = (   0.0625000   0.3125000  -0.3750000), wk =   0.0234375
        k(  106) = (   0.0625000   0.3125000  -0.3125000), wk =   0.0234375
        k(  107) = (   0.0625000   0.3125000  -0.2500000), wk =   0.0117188
        k(  108) = (   0.0625000   0.3750000   0.4375000), wk =   0.0117188
        k(  109) = (   0.0625000   0.3750000  -0.5000000), wk =   0.0234375
        k(  110) = (   0.0625000   0.3750000  -0.4375000), wk =   0.0234375
        k(  111) = (   0.0625000   0.3750000  -0.3750000), wk =   0.0234375
        k(  112) = (   0.0625000   0.3750000  -0.3125000), wk =   0.0117188
        k(  113) = (   0.0625000   0.4375000  -0.5000000), wk =   0.0117188
        k(  114) = (   0.0625000   0.4375000  -0.4375000), wk =   0.0234375
        k(  115) = (   0.0625000   0.4375000  -0.3750000), wk =   0.0117188
        k(  116) = (   0.0625000  -0.5000000  -0.4375000), wk =   0.0058594
        k(  117) = (   0.1250000   0.2500000   0.3750000), wk =   0.0117188
        k(  118) = (   0.1250000   0.2500000   0.4375000), wk =   0.0234375
        k(  119) = (   0.1250000   0.2500000  -0.5000000), wk =   0.0234375
        k(  120) = (   0.1250000   0.2500000  -0.4375000), wk =   0.0234375
        k(  121) = (   0.1250000   0.2500000  -0.3750000), wk =   0.0117188
        k(  122) = (   0.1250000   0.3125000   0.4375000), wk =   0.0117188
        k(  123) = (   0.1250000   0.3125000  -0.5000000), wk =   0.0234375
        k(  124) = (   0.1250000   0.3125000  -0.4375000), wk =   0.0234375
        k(  125) = (   0.1250000   0.3125000  -0.3750000), wk =   0.0234375
        k(  126) = (   0.1250000   0.3125000  -0.3125000), wk =   0.0234375
        k(  127) = (   0.1250000   0.3125000  -0.2500000), wk =   0.0234375
        k(  128) = (   0.1250000   0.3125000  -0.1875000), wk =   0.0117188
        k(  129) = (   0.1250000   0.3750000  -0.5000000), wk =   0.0117188
        k(  130) = (   0.1250000   0.3750000  -0.4375000), wk =   0.0234375
        k(  131) = (   0.1250000   0.3750000  -0.3750000), wk =   0.0234375
        k(  132) = (   0.1250000   0.3750000  -0.3125000), wk =   0.0234375
        k(  133) = (   0.1250000   0.3750000  -0.2500000), wk =   0.0117188
        k(  134) = (   0.1250000   0.4375000  -0.4375000), wk =   0.0117188
        k(  135) = (   0.1250000   0.4375000  -0.3750000), wk =   0.0234375
        k(  136) = (   0.1250000   0.4375000  -0.3125000), wk =   0.0117188
        k(  137) = (   0.1250000  -0.5000000  -0.3750000), wk =   0.0058594
        k(  138) = (   0.1875000   0.3750000  -0.4375000), wk =   0.0117188
        k(  139) = (   0.1875000   0.3750000  -0.3750000), wk =   0.0234375
        k(  140) = (   0.1875000   0.3750000  -0.3125000), wk =   0.0117188
        k(  141) = (   0.1875000   0.4375000  -0.3750000), wk =   0.0117188
        k(  142) = (   0.1875000   0.4375000  -0.3125000), wk =   0.0234375
        k(  143) = (   0.1875000   0.4375000  -0.2500000), wk =   0.0117188
        k(  144) = (   0.1875000  -0.5000000  -0.3125000), wk =   0.0058594
        k(  145) = (   0.2500000  -0.5000000  -0.2500000), wk =   0.0029297

     Dense  grid:   417097 G-vectors     FFT dimensions: ( 108, 108, 108)

     Smooth grid:   105395 G-vectors     FFT dimensions: (  72,  72,  72)

     Dynamical RAM for                 wfc:       1.63 MB

     Dynamical RAM for     wfc (w. buffer):       1.63 MB

     Dynamical RAM for           str. fact:       0.80 MB

     Dynamical RAM for           local pot:       0.00 MB

     Dynamical RAM for          nlocal pot:       7.24 MB

     Dynamical RAM for                qrad:       4.14 MB

     Dynamical RAM for          rho,v,vnew:       6.12 MB

     Dynamical RAM for           G-vectors:       3.08 MB

     Dynamical RAM for          h,s,v(r/c):       3.09 MB

     Dynamical RAM for          <psi|beta>:       0.29 MB

     Dynamical RAM for                 psi:       6.54 MB

     Dynamical RAM for                hpsi:       6.54 MB

     Dynamical RAM for                spsi:       6.54 MB

     Dynamical RAM for      wfcinit/wfcrot:       3.37 MB

     Dynamical RAM for           addusdens:     160.70 MB

     Estimated static dynamical RAM per process >      30.84 MB

     Estimated max dynamical RAM per process >     191.54 MB

     Estimated total dynamical RAM >       1.50 GB

     The potential is recalculated from file :
     tmp/si.save/charge-density

     Starting wfcs are   64 randomized atomic wfcs +    1 random wfcs

     Band Structure Calculation
     Davidson diagonalization with overlap

     Computing kpt #:     1
     total cpu time spent up to now is       10.3 secs

     Computing kpt #:     2
     total cpu time spent up to now is       20.1 secs

     Computing kpt #:     3
     total cpu time spent up to now is       31.4 secs

     Computing kpt #:     4
     total cpu time spent up to now is       40.8 secs

     Computing kpt #:     5
     total cpu time spent up to now is       50.5 secs

     Computing kpt #:     6
     total cpu time spent up to now is       58.0 secs

     Computing kpt #:     7
     total cpu time spent up to now is       65.9 secs

     Computing kpt #:     8
     total cpu time spent up to now is       75.1 secs

     Computing kpt #:     9
     total cpu time spent up to now is       82.6 secs

     Computing kpt #:    10
     total cpu time spent up to now is       91.7 secs

     Computing kpt #:    11
     total cpu time spent up to now is      101.3 secs

     Computing kpt #:    12
     total cpu time spent up to now is      110.6 secs

     Computing kpt #:    13
     total cpu time spent up to now is      120.4 secs

     Computing kpt #:    14
     total cpu time spent up to now is      130.1 secs

     Computing kpt #:    15
     total cpu time spent up to now is      139.7 secs

     Computing kpt #:    16
     total cpu time spent up to now is      148.7 secs

     Computing kpt #:    17
     total cpu time spent up to now is      157.8 secs

     Computing kpt #:    18
     total cpu time spent up to now is      165.8 secs

     Computing kpt #:    19
     total cpu time spent up to now is      174.3 secs

     Computing kpt #:    20
     total cpu time spent up to now is      184.0 secs

     Computing kpt #:    21
     total cpu time spent up to now is      192.1 secs

     Computing kpt #:    22
     total cpu time spent up to now is      202.2 secs

     Computing kpt #:    23
     total cpu time spent up to now is      213.4 secs

     Computing kpt #:    24
     c_bands:  2 eigenvalues not converged
     total cpu time spent up to now is      228.2 secs

     Computing kpt #:    25
     total cpu time spent up to now is      239.3 secs

     Computing kpt #:    26
     total cpu time spent up to now is      248.8 secs

     Computing kpt #:    27
     total cpu time spent up to now is      258.5 secs

     Computing kpt #:    28
     total cpu time spent up to now is      267.9 secs

     Computing kpt #:    29
     total cpu time spent up to now is      276.4 secs

     Computing kpt #:    30
     c_bands:  1 eigenvalues not converged
     total cpu time spent up to now is      290.3 secs

     Computing kpt #:    31
     total cpu time spent up to now is      298.7 secs

     Computing kpt #:    32
     total cpu time spent up to now is      306.3 secs

     Computing kpt #:    33
     total cpu time spent up to now is      314.3 secs

     Computing kpt #:    34
     total cpu time spent up to now is      324.4 secs

     Computing kpt #:    35
     total cpu time spent up to now is      334.4 secs

     Computing kpt #:    36
     c_bands:  2 eigenvalues not converged
     total cpu time spent up to now is      349.7 secs

     Computing kpt #:    37
     total cpu time spent up to now is      359.5 secs

     Computing kpt #:    38
     total cpu time spent up to now is      371.3 secs

     Computing kpt #:    39
     total cpu time spent up to now is      381.3 secs

     Computing kpt #:    40
     total cpu time spent up to now is      391.3 secs

     Computing kpt #:    41
     total cpu time spent up to now is      400.8 secs

     Computing kpt #:    42
     total cpu time spent up to now is      412.5 secs

     Computing kpt #:    43
     total cpu time spent up to now is      420.8 secs

     Computing kpt #:    44
     total cpu time spent up to now is      429.1 secs

     Computing kpt #:    45
     total cpu time spent up to now is      436.7 secs

     Computing kpt #:    46
     total cpu time spent up to now is      444.8 secs

     Computing kpt #:    47
     total cpu time spent up to now is      454.8 secs

     Computing kpt #:    48
     total cpu time spent up to now is      464.4 secs

     Computing kpt #:    49
     total cpu time spent up to now is      472.9 secs

     Computing kpt #:    50
     total cpu time spent up to now is      481.9 secs

     Computing kpt #:    51
     total cpu time spent up to now is      490.1 secs

     Computing kpt #:    52
     total cpu time spent up to now is      497.8 secs

     Computing kpt #:    53
     total cpu time spent up to now is      509.2 secs

     Computing kpt #:    54
     total cpu time spent up to now is      518.2 secs

     Computing kpt #:    55
     total cpu time spent up to now is      526.8 secs

     Computing kpt #:    56
     total cpu time spent up to now is      535.3 secs

     Computing kpt #:    57
     total cpu time spent up to now is      543.8 secs

     Computing kpt #:    58
     total cpu time spent up to now is      552.0 secs

     Computing kpt #:    59
     total cpu time spent up to now is      560.4 secs

     Computing kpt #:    60
     total cpu time spent up to now is      568.0 secs

     Computing kpt #:    61
     total cpu time spent up to now is      577.5 secs

     Computing kpt #:    62
     total cpu time spent up to now is      586.7 secs

     Computing kpt #:    63
     total cpu time spent up to now is      594.9 secs

     Computing kpt #:    64
     total cpu time spent up to now is      604.4 secs

     Computing kpt #:    65
     total cpu time spent up to now is      612.7 secs

     Computing kpt #:    66
     total cpu time spent up to now is      620.7 secs

     Computing kpt #:    67
     total cpu time spent up to now is      628.6 secs

     Computing kpt #:    68
     total cpu time spent up to now is      636.6 secs

     Computing kpt #:    69
     total cpu time spent up to now is      644.4 secs

     Computing kpt #:    70
     total cpu time spent up to now is      651.9 secs

     Computing kpt #:    71
     total cpu time spent up to now is      660.1 secs

     Computing kpt #:    72
     total cpu time spent up to now is      668.2 secs

     Computing kpt #:    73
     total cpu time spent up to now is      677.4 secs

     Computing kpt #:    74
     total cpu time spent up to now is      689.0 secs

     Computing kpt #:    75
     total cpu time spent up to now is      699.2 secs

     Computing kpt #:    76
     total cpu time spent up to now is      708.6 secs

     Computing kpt #:    77
     total cpu time spent up to now is      719.4 secs

     Computing kpt #:    78
     total cpu time spent up to now is      729.0 secs

     Computing kpt #:    79
     total cpu time spent up to now is      737.1 secs

     Computing kpt #:    80
     total cpu time spent up to now is      746.5 secs

     Computing kpt #:    81
     total cpu time spent up to now is      759.3 secs

     Computing kpt #:    82
     total cpu time spent up to now is      770.5 secs

     Computing kpt #:    83
     total cpu time spent up to now is      780.1 secs

     Computing kpt #:    84
     total cpu time spent up to now is      789.2 secs

     Computing kpt #:    85
     total cpu time spent up to now is      798.4 secs

     Computing kpt #:    86
     total cpu time spent up to now is      807.6 secs

     Computing kpt #:    87
     total cpu time spent up to now is      815.7 secs

     Computing kpt #:    88
     total cpu time spent up to now is      824.1 secs

     Computing kpt #:    89
     total cpu time spent up to now is      832.4 secs

     Computing kpt #:    90
     total cpu time spent up to now is      841.9 secs

     Computing kpt #:    91
     total cpu time spent up to now is      852.9 secs

     Computing kpt #:    92
     total cpu time spent up to now is      861.6 secs

     Computing kpt #:    93
     total cpu time spent up to now is      872.6 secs

     Computing kpt #:    94
     total cpu time spent up to now is      882.5 secs

     Computing kpt #:    95
     total cpu time spent up to now is      890.8 secs

     Computing kpt #:    96
     total cpu time spent up to now is      899.2 secs

     Computing kpt #:    97
     total cpu time spent up to now is      907.9 secs

     Computing kpt #:    98
     total cpu time spent up to now is      917.3 secs

     Computing kpt #:    99
     total cpu time spent up to now is      926.5 secs

     Computing kpt #:   100
     total cpu time spent up to now is      936.3 secs

     Computing kpt #:   101
     total cpu time spent up to now is      944.9 secs

     Computing kpt #:   102
     total cpu time spent up to now is      954.5 secs

     Computing kpt #:   103
     total cpu time spent up to now is      964.0 secs

     Computing kpt #:   104
     total cpu time spent up to now is      973.5 secs

     Computing kpt #:   105
     total cpu time spent up to now is      982.3 secs

     Computing kpt #:   106
     total cpu time spent up to now is      991.6 secs

     Computing kpt #:   107
     total cpu time spent up to now is      999.6 secs

     Computing kpt #:   108
     total cpu time spent up to now is     1007.8 secs

     Computing kpt #:   109
     total cpu time spent up to now is     1016.3 secs

     Computing kpt #:   110
     total cpu time spent up to now is     1024.3 secs

     Computing kpt #:   111
     total cpu time spent up to now is     1032.6 secs

     Computing kpt #:   112
     total cpu time spent up to now is     1041.1 secs

     Computing kpt #:   113
     total cpu time spent up to now is     1050.7 secs

     Computing kpt #:   114
     total cpu time spent up to now is     1058.8 secs

     Computing kpt #:   115
     total cpu time spent up to now is     1066.8 secs

     Computing kpt #:   116
     total cpu time spent up to now is     1076.3 secs

     Computing kpt #:   117
     total cpu time spent up to now is     1084.4 secs

     Computing kpt #:   118
     total cpu time spent up to now is     1093.7 secs

     Computing kpt #:   119
     total cpu time spent up to now is     1102.3 secs

     Computing kpt #:   120
     total cpu time spent up to now is     1112.2 secs

     Computing kpt #:   121
     total cpu time spent up to now is     1122.1 secs

     Computing kpt #:   122
     c_bands:  1 eigenvalues not converged
     total cpu time spent up to now is     1136.0 secs

     Computing kpt #:   123
     total cpu time spent up to now is     1146.8 secs

     Computing kpt #:   124
     total cpu time spent up to now is     1155.1 secs

     Computing kpt #:   125
     total cpu time spent up to now is     1164.4 secs

     Computing kpt #:   126
     total cpu time spent up to now is     1172.8 secs

     Computing kpt #:   127
     total cpu time spent up to now is     1180.8 secs

     Computing kpt #:   128
     total cpu time spent up to now is     1190.2 secs

     Computing kpt #:   129
     total cpu time spent up to now is     1198.3 secs

     Computing kpt #:   130
     total cpu time spent up to now is     1209.0 secs

     Computing kpt #:   131
     total cpu time spent up to now is     1218.9 secs

     Computing kpt #:   132
     total cpu time spent up to now is     1228.7 secs

     Computing kpt #:   133
     total cpu time spent up to now is     1238.3 secs

     Computing kpt #:   134
     total cpu time spent up to now is     1247.7 secs

     Computing kpt #:   135
     total cpu time spent up to now is     1256.0 secs

     Computing kpt #:   136
     total cpu time spent up to now is     1264.6 secs

     Computing kpt #:   137
     total cpu time spent up to now is     1274.6 secs

     Computing kpt #:   138
     total cpu time spent up to now is     1284.7 secs

     Computing kpt #:   139
     total cpu time spent up to now is     1293.1 secs

     Computing kpt #:   140
     total cpu time spent up to now is     1303.1 secs

     Computing kpt #:   141
     total cpu time spent up to now is     1312.6 secs

     Computing kpt #:   142
     total cpu time spent up to now is     1323.8 secs

     Computing kpt #:   143
     total cpu time spent up to now is     1335.3 secs

     Computing kpt #:   144
     total cpu time spent up to now is     1344.7 secs

     Computing kpt #:   145
     total cpu time spent up to now is     1354.4 secs

     ethr =  1.56E-13,  avg # of iterations = 47.8

     total cpu time spent up to now is     1355.4 secs

     End of band structure calculation

          k = 0.0000 0.0000 0.0000 ( 13323 PWs)   bands (ev):

    -5.8352  -3.5580  -3.5580  -3.5580  -3.5580  -1.7690  -1.7690  -1.7690
    -1.7690  -1.7690  -1.7690  -0.8908  -0.8908  -0.8908  -0.8908   3.1838
     3.1838   3.1838   3.1838   3.1838   3.1838   4.8002   4.8002   4.8002
     4.8002   4.8002   4.8002   4.8002   4.8002   5.9809   5.9809   5.9809
     6.7351   6.7351   6.7351   6.7351   6.7351   6.7351   7.4429   7.4429
     7.4429   7.4429   8.5351   8.5351   8.5351   9.0977   9.3319   9.3319
     9.3319   9.3319   9.3319   9.3319   9.3319   9.3319  13.6880  13.6880
    13.6880  13.6880  13.6990  13.6990  13.8613  15.9016  15.9016  15.9016
    15.9016

     occupation numbers 
     1.0000   1.0000   1.0000   1.0000   1.0000   1.0000   1.0000   1.0000
     1.0000   1.0000   1.0000   1.0000   1.0000   1.0000   1.0000   1.0000
     1.0000   1.0000   1.0000   1.0000   1.0000   1.0000   1.0000   1.0000
     1.0000   1.0000   1.0000   1.0000   1.0000   1.0000   1.0000   1.0000
     0.0000   0.0000   0.0000   0.0000   0.0000   0.0000   0.0000   0.0000
     0.0000   0.0000   0.0000   0.0000   0.0000   0.0000   0.0000   0.0000
     0.0000   0.0000   0.0000   0.0000   0.0000   0.0000   0.0000   0.0000
     0.0000   0.0000   0.0000   0.0000   0.0000   0.0000   0.0000   0.0000
     0.0000

          k = 0.0439 0.0439-0.0439 ( 13263 PWs)   bands (ev):

    -5.8226  -3.6108  -3.5528  -3.5528  -3.5528  -2.0005  -2.0005  -2.0005
    -1.5272  -1.5272  -1.5272  -0.8765  -0.8765  -0.8765  -0.8142   3.1319
     3.1319   3.1319   3.1943   3.1943   3.1943   4.7010   4.7010   4.7010
     4.7742   4.7742   4.7742   4.8072   4.8072   5.8303   5.9593   5.9593
     6.7195   6.7195   6.7195   6.8536   6.8536   6.8536   7.4510   7.5424
     7.5424   7.5424   8.5660   8.5667   8.5667   9.1953   9.3085   9.3085
     9.3085   9.3395   9.3395   9.3824   9.3824   9.3824  13.6546  13.6546
    13.6997  13.7364  13.7364  13.7364  13.9174  15.7247  15.7247  15.7247
    15.7561

     occupation numbers 
     1.0000   1.0000   1.0000   1.0000   1.0000   1.0000   1.0000   1.0000
     1.0000   1.0000   1.0000   1.0000   1.0000   1.0000   1.0000   1.0000
     1.0000   1.0000   1.0000   1.0000   1.0000   1.0000   1.0000   1.0000
     1.0000   1.0000   1.0000   1.0000   1.0000   1.0000   1.0000   1.0000
     0.0000   0.0000   0.0000   0.0000   0.0000   0.0000   0.0000   0.0000
     0.0000   0.0000   0.0000   0.0000   0.0000   0.0000   0.0000   0.0000
     0.0000   0.0000   0.0000   0.0000   0.0000   0.0000   0.0000   0.0000
     0.0000   0.0000   0.0000   0.0000   0.0000   0.0000   0.0000   0.0000
     0.0000

          k = 0.0878 0.0878-0.0878 ( 13248 PWs)   bands (ev):

    -5.7849  -3.7531  -3.5371  -3.5371  -3.5371  -2.2185  -2.2185  -2.2185
    -1.2799  -1.2799  -1.2799  -0.8345  -0.8345  -0.8345  -0.6006   2.9937
     2.9937   2.9937   3.2258   3.2258   3.2258   4.4445   4.4445   4.4445
     4.6999   4.6999   4.6999   4.8280   4.8280   5.4485   5.8982   5.8982
     6.7540   6.7540   6.7540   7.1122   7.1122   7.1122   7.4752   7.7851
     7.7851   7.7851   8.5735   8.6564   8.6564   9.2614   9.2614   9.2614
     9.3615   9.3615   9.5064   9.5301   9.5301   9.5301  13.5370  13.5370
    13.7328  13.8415  13.8415  13.8415  14.0801  15.2921  15.2921  15.2921
    15.3211

     occupation numbers 
     1.0000   1.0000   1.0000   1.0000   1.0000   1.0000   1.0000   1.0000
     1.0000   1.0000   1.0000   1.0000   1.0000   1.0000   1.0000   1.0000
     1.0000   1.0000   1.0000   1.0000   1.0000   1.0000   1.0000   1.0000
     1.0000   1.0000   1.0000   1.0000   1.0000   1.0000   1.0000   1.0000
     0.0000   0.0000   0.0000   0.0000   0.0000   0.0000   0.0000   0.0000
     0.0000   0.0000   0.0000   0.0000   0.0000   0.0000   0.0000   0.0000
     0.0000   0.0000   0.0000   0.0000   0.0000   0.0000   0.0000   0.0000
     0.0000   0.0000   0.0000   0.0000   0.0000   0.0000   0.0000   0.0000
     0.0000

          k = 0.1316 0.1316-0.1316 ( 13221 PWs)   bands (ev):

    -5.7222  -3.9517  -3.5101  -3.5101  -3.5101  -2.4211  -2.4210  -2.4210
    -1.0344  -1.0344  -1.0344  -0.7676  -0.7676  -0.7676  -0.2835   2.8090
     2.8090   2.8090   3.2779   3.2779   3.2779   4.1039   4.1039   4.1039
     4.5868   4.5868   4.5868   4.8627   4.8627   4.9452   5.8074   5.8074
     6.8202   6.8202   6.8202   7.4939   7.4939   7.4939   7.5153   8.0380
     8.0380   8.0380   8.5158   8.7905   8.7905   9.2717   9.2717   9.2717
     9.3950   9.3950   9.7654   9.7654   9.7654   9.9698  13.3817  13.3817
    13.7799  13.7883  13.7883  13.7883  14.3318  14.7434  14.7434  14.7434
    14.8206

     occupation numbers 
     1.0000   1.0000   1.0000   1.0000   1.0000   1.0000   1.0000   1.0000
     1.0000   1.0000   1.0000   1.0000   1.0000   1.0000   1.0000   1.0000
     1.0000   1.0000   1.0000   1.0000   1.0000   1.0000   1.0000   1.0000
     1.0000   1.0000   1.0000   1.0000   1.0000   1.0000   1.0000   1.0000
     0.0000   0.0000   0.0000   0.0000   0.0000   0.0000   0.0000   0.0000
     0.0000   0.0000   0.0000   0.0000   0.0000   0.0000   0.0000   0.0000
     0.0000   0.0000   0.0000   0.0000   0.0000   0.0000   0.0000   0.0000
     0.0000   0.0000   0.0000   0.0000   0.0000   0.0000   0.0000   0.0000
     0.0000

          k = 0.1755 0.1755-0.1755 ( 13200 PWs)   bands (ev):

    -5.6349  -4.1769  -3.4711  -3.4711  -3.4711  -2.6068  -2.6068  -2.6068
    -0.8018  -0.8018  -0.8018  -0.6804  -0.6804  -0.6804   0.1070   2.6204
     2.6204   2.6204   3.3502   3.3502   3.3502   3.7328   3.7329   3.7329
     4.3876   4.4468   4.4468   4.4468   4.9111   4.9111   5.6978   5.6978
     6.9141   6.9141   6.9141   7.5710   7.9684   7.9684   7.9684   8.1424
     8.1424   8.1424   8.4189   8.9510   8.9510   9.4349   9.4349   9.4700
     9.4700   9.4700  10.0760  10.0760  10.0760  10.5023  13.2265  13.2265
    13.2864  13.2864  13.2864  13.8210  14.1535  14.1535  14.1535  14.2064
    14.2064

     occupation numbers 
     1.0000   1.0000   1.0000   1.0000   1.0000   1.0000   1.0000   1.0000
     1.0000   1.0000   1.0000   1.0000   1.0000   1.0000   1.0000   1.0000
     1.0000   1.0000   1.0000   1.0000   1.0000   1.0000   1.0000   1.0000
     1.0000   1.0000   1.0000   1.0000   1.0000   1.0000   1.0000   1.0000
     0.0000   0.0000   0.0000   0.0000   0.0000   0.0000   0.0000   0.0000
     0.0000   0.0000   0.0000   0.0000   0.0000   0.0000   0.0000   0.0000
     0.0000   0.0000   0.0000   0.0000   0.0000   0.0000   0.0000   0.0000
     0.0000   0.0000   0.0000   0.0000   0.0000   0.0000   0.0000   0.0000
     0.0000

          k = 0.2194 0.2194-0.2194 ( 13197 PWs)   bands (ev):

    -5.5233  -4.4093  -3.4190  -3.4190  -3.4190  -2.7750  -2.7750  -2.7750
    -0.5984  -0.5984  -0.5984  -0.5806  -0.5806  -0.5806   0.5507   2.4668
     2.4668   2.4668   3.3648   3.3648   3.3648   3.4418   3.4418   3.4418
     3.8090   4.2914   4.2914   4.2914   4.9730   4.9730   5.5793   5.5793
     7.0338   7.0338   7.0338   7.6419   8.0689   8.0689   8.0689   8.3025
     8.5120   8.5120   8.5120   9.1177   9.1177   9.4737   9.4737   9.8763
     9.8763   9.8763  10.4501  10.4501  10.4501  11.0608  12.5888  12.5888
    12.5888  13.1040  13.1040  13.5565  13.5565  13.5565  13.5617  13.5617
    13.5617

     occupation numbers 
     1.0000   1.0000   1.0000   1.0000   1.0000   1.0000   1.0000   1.0000
     1.0000   1.0000   1.0000   1.0000   1.0000   1.0000   1.0000   1.0000
     1.0000   1.0000   1.0000   1.0000   1.0000   1.0000   1.0000   1.0000
     1.0000   1.0000   1.0000   1.0000   1.0000   1.0000   1.0000   1.0000
     0.0000   0.0000   0.0000   0.0000   0.0000   0.0000   0.0000   0.0000
     0.0000   0.0000   0.0000   0.0000   0.0000   0.0000   0.0000   0.0000
     0.0000   0.0000   0.0000   0.0000   0.0000   0.0000   0.0000   0.0000
     0.0000   0.0000   0.0000   0.0000   0.0000   0.0000   0.0000   0.0000
     0.0000

          k = 0.2633 0.2633-0.2633 ( 13185 PWs)   bands (ev):

    -5.3881  -4.6367  -3.3526  -3.3526  -3.3526  -2.9254  -2.9254  -2.9254
    -0.4796  -0.4796  -0.4796  -0.4447  -0.4447  -0.4447   1.0347   2.3830
     2.3830   2.3830   3.0239   3.0240   3.0240   3.2270   3.5515   3.5515
     3.5515   4.1302   4.1302   4.1302   5.0480   5.0480   5.4593   5.4593
     7.1774   7.1774   7.1774   7.7271   7.9071   7.9071   7.9071   8.1783
     9.1087   9.1087   9.1087   9.2705   9.2705   9.5009   9.5009  10.3981
    10.3981  10.3981  10.8772  10.8772  10.8772  11.6248  11.8627  11.8627
    11.8627  12.9080  12.9080  12.9080  12.9691  12.9691  12.9691  13.0418
    13.0418

     occupation numbers 
     1.0000   1.0000   1.0000   1.0000   1.0000   1.0000   1.0000   1.0000
     1.0000   1.0000   1.0000   1.0000   1.0000   1.0000   1.0000   1.0000
     1.0000   1.0000   1.0000   1.0000   1.0000   1.0000   1.0000   1.0000
     1.0000   1.0000   1.0000   1.0000   1.0000   1.0000   1.0000   1.0000
     0.0000   0.0000   0.0000   0.0000   0.0000   0.0000   0.0000   0.0000
     0.0000   0.0000   0.0000   0.0000   0.0000   0.0000   0.0000   0.0000
     0.0000   0.0000   0.0000   0.0000   0.0000   0.0000   0.0000   0.0000
     0.0000   0.0000   0.0000   0.0000   0.0000   0.0000   0.0000   0.0000
     0.0000

          k = 0.3072 0.3072-0.3072 ( 13178 PWs)   bands (ev):

    -5.2302  -4.8521  -3.2709  -3.2709  -3.2709  -3.0580  -3.0579  -3.0579
    -0.3943  -0.3943  -0.3943  -0.3590  -0.3590  -0.3590   1.5503   2.3961
     2.3961   2.3961   2.6521   2.7330   2.7330   2.7330   3.6778   3.6778
     3.6778   3.9707   3.9707   3.9707   5.1354   5.1354   5.3431   5.3431
     7.3423   7.3423   7.3423   7.7169   7.7169   7.7169   7.8255   8.0541
     9.3918   9.3918   9.5038   9.5038   9.7471   9.7471   9.7471  10.9270
    10.9270  10.9270  11.1962  11.1962  11.1962  11.3492  11.3492  11.3492
    12.1827  12.2579  12.2579  12.2579  12.4011  12.4011  12.4011  13.0617
    13.0617

     occupation numbers 
     1.0000   1.0000   1.0000   1.0000   1.0000   1.0000   1.0000   1.0000
     1.0000   1.0000   1.0000   1.0000   1.0000   1.0000   1.0000   1.0000
     1.0000   1.0000   1.0000   1.0000   1.0000   1.0000   1.0000   1.0000
     1.0000   1.0000   1.0000   1.0000   1.0000   1.0000   1.0000   1.0000
     0.0000   0.0000   0.0000   0.0000   0.0000   0.0000   0.0000   0.0000
     0.0000   0.0000   0.0000   0.0000   0.0000   0.0000   0.0000   0.0000
     0.0000   0.0000   0.0000   0.0000   0.0000   0.0000   0.0000   0.0000
     0.0000   0.0000   0.0000   0.0000   0.0000   0.0000   0.0000   0.0000
     0.0000

          k =-0.3510-0.3510 0.3510 ( 13190 PWs)   bands (ev):

    -5.0509  -5.0509  -3.1729  -3.1729  -3.1729  -3.1729  -3.1729  -3.1729
    -0.3465  -0.3465  -0.3465  -0.3464  -0.3464  -0.3464   2.0913   2.0913
     2.5162   2.5162   2.5162   2.5162   2.5162   2.5162   3.8186   3.8186
     3.8186   3.8186   3.8186   3.8186   5.2344   5.2344   5.2344   5.2344
     7.5244   7.5244   7.5244   7.5244   7.5244   7.5244   7.9353   7.9353
     9.4700   9.4700   9.4700   9.4700  10.4161  10.4161  10.4161  10.4161
    10.4161  10.4161  11.6236  11.6236  11.6236  11.6236  11.6236  11.6236
    11.8592  11.8592  11.8592  11.8592  11.8592  11.8592  12.7226  12.7226
    13.1772

     occupation numbers 
     1.0000   1.0000   1.0000   1.0000   1.0000   1.0000   1.0000   1.0000
     1.0000   1.0000   1.0000   1.0000   1.0000   1.0000   1.0000   1.0000
     1.0000   1.0000   1.0000   1.0000   1.0000   1.0000   1.0000   1.0000
     1.0000   1.0000   1.0000   1.0000   1.0000   1.0000   1.0000   1.0000
     0.0000   0.0000   0.0000   0.0000   0.0000   0.0000   0.0000   0.0000
     0.0000   0.0000   0.0000   0.0000   0.0000   0.0000   0.0000   0.0000
     0.0000   0.0000   0.0000   0.0000   0.0000   0.0000   0.0000   0.0000
     0.0000   0.0000   0.0000   0.0000   0.0000   0.0000   0.0000   0.0000
     0.0000

          k = 0.0878 0.0000 0.0000 ( 13267 PWs)   bands (ev):

    -5.8184  -3.5707  -3.5707  -3.5707  -3.5707  -2.2332  -1.7637  -1.7637
    -1.7637  -1.7636  -1.2848  -0.8507  -0.8507  -0.8507  -0.8507   3.1347
     3.1347   3.1347   3.1347   3.1990   3.1990   4.6853   4.6853   4.6853
     4.6853   4.7952   4.7952   4.7952   4.7952   5.8615   5.9105   5.9105
     6.6455   6.8267   6.8267   6.8267   6.8267   6.8700   7.5447   7.5447
     7.5447   7.5447   8.4938   8.6261   8.6261   9.2143   9.3297   9.3297
     9.3297   9.3297   9.3660   9.3660   9.3660   9.3660  13.5644  13.7177
    13.7411  13.7411  13.7411  13.7411  13.9360  15.6028  15.6028  15.7461
    15.7461

     occupation numbers 
     1.0000   1.0000   1.0000   1.0000   1.0000   1.0000   1.0000   1.0000
     1.0000   1.0000   1.0000   1.0000   1.0000   1.0000   1.0000   1.0000
     1.0000   1.0000   1.0000   1.0000   1.0000   1.0000   1.0000   1.0000
     1.0000   1.0000   1.0000   1.0000   1.0000   1.0000   1.0000   1.0000
     0.0000   0.0000   0.0000   0.0000   0.0000   0.0000   0.0000   0.0000
     0.0000   0.0000   0.0000   0.0000   0.0000   0.0000   0.0000   0.0000
     0.0000   0.0000   0.0000   0.0000   0.0000   0.0000   0.0000   0.0000
     0.0000   0.0000   0.0000   0.0000   0.0000   0.0000   0.0000   0.0000
     0.0000

          k = 0.1316 0.0439-0.0439 ( 13244 PWs)   bands (ev):

    -5.7891  -3.6867  -3.5773  -3.5773  -3.5193  -2.4527  -1.9882  -1.9882
    -1.5190  -1.5190  -1.0356  -0.8600  -0.7976  -0.7976  -0.6794   2.9875
     2.9875   3.1591   3.1591   3.1633   3.2246   4.4087   4.5099   4.5099
     4.6840   4.7333   4.7490   4.7490   4.8300   5.5639   5.8269   5.8901
     6.6612   6.8433   6.8433   7.0024   7.0807   7.0807   7.5630   7.7189
     7.7189   7.7816   8.4879   8.6922   8.7397   9.2815   9.2815   9.2916
     9.3643   9.3657   9.4374   9.4806   9.4806   9.4912  13.4081  13.6936
    13.7603  13.8197  13.8197  13.8664  14.0631  15.2619  15.2766  15.3065
    15.3065

     occupation numbers 
     1.0000   1.0000   1.0000   1.0000   1.0000   1.0000   1.0000   1.0000
     1.0000   1.0000   1.0000   1.0000   1.0000   1.0000   1.0000   1.0000
     1.0000   1.0000   1.0000   1.0000   1.0000   1.0000   1.0000   1.0000
     1.0000   1.0000   1.0000   1.0000   1.0000   1.0000   1.0000   1.0000
     0.0000   0.0000   0.0000   0.0000   0.0000   0.0000   0.0000   0.0000
     0.0000   0.0000   0.0000   0.0000   0.0000   0.0000   0.0000   0.0000
     0.0000   0.0000   0.0000   0.0000   0.0000   0.0000   0.0000   0.0000
     0.0000   0.0000   0.0000   0.0000   0.0000   0.0000   0.0000   0.0000
     0.0000

          k = 0.1755 0.0878-0.0878 ( 13209 PWs)   bands (ev):

    -5.7347  -3.8703  -3.5718  -3.5718  -3.4574  -2.6563  -2.1986  -2.1986
    -1.2727  -1.2727  -0.8431  -0.7863  -0.7197  -0.7197  -0.3932   2.7909
     2.7909   3.0451   3.2047   3.2047   3.2711   4.0500   4.2312   4.2312
     4.6296   4.6436   4.6436   4.6975   4.8783   5.1004   5.7192   5.8406
     6.7428   6.8928   6.8928   7.2574   7.4572   7.4572   7.5971   7.9799
     7.9799   8.0362   8.5243   8.7023   8.8929   9.2258   9.2258   9.2986
     9.3753   9.4143   9.7016   9.7016   9.7070   9.8484  13.2216  13.6024
    13.7840  13.8119  13.8119  13.9844  14.2860  14.7153  14.7153  14.7778
    14.8043

     occupation numbers 
     1.0000   1.0000   1.0000   1.0000   1.0000   1.0000   1.0000   1.0000
     1.0000   1.0000   1.0000   1.0000   1.0000   1.0000   1.0000   1.0000
     1.0000   1.0000   1.0000   1.0000   1.0000   1.0000   1.0000   1.0000
     1.0000   1.0000   1.0000   1.0000   1.0000   1.0000   1.0000   1.0000
     0.0000   0.0000   0.0000   0.0000   0.0000   0.0000   0.0000   0.0000
     0.0000   0.0000   0.0000   0.0000   0.0000   0.0000   0.0000   0.0000
     0.0000   0.0000   0.0000   0.0000   0.0000   0.0000   0.0000   0.0000
     0.0000   0.0000   0.0000   0.0000   0.0000   0.0000   0.0000   0.0000
     0.0000

          k = 0.2194 0.1316-0.1316 ( 13210 PWs)   bands (ev):

    -5.6556  -4.0893  -3.5530  -3.5530  -3.3852  -2.8423  -2.3934  -2.3934
    -1.0344  -1.0344  -0.8031  -0.6212  -0.6212  -0.5468  -0.0248   2.5860
     2.5860   2.8870   3.2712   3.2712   3.3378   3.6618   3.8975   3.8975
     4.4959   4.5033   4.5033   4.5632   4.7259   4.9397   5.5985   5.7575
     6.8534   6.9713   6.9713   7.6364   7.6467   7.9258   7.9258   8.1571
     8.1788   8.1788   8.5073   8.7621   9.0682   9.2821   9.2821   9.3949
     9.4711   9.4748  10.0015  10.0093  10.0093  10.3506  13.0414  13.3771
    13.3771  13.4823  13.7667  13.7808  14.0851  14.0851  14.2249  14.2363
    14.3774

     occupation numbers 
     1.0000   1.0000   1.0000   1.0000   1.0000   1.0000   1.0000   1.0000
     1.0000   1.0000   1.0000   1.0000   1.0000   1.0000   1.0000   1.0000
     1.0000   1.0000   1.0000   1.0000   1.0000   1.0000   1.0000   1.0000
     1.0000   1.0000   1.0000   1.0000   1.0000   1.0000   1.0000   1.0000
     0.0000   0.0000   0.0000   0.0000   0.0000   0.0000   0.0000   0.0000
     0.0000   0.0000   0.0000   0.0000   0.0000   0.0000   0.0000   0.0000
     0.0000   0.0000   0.0000   0.0000   0.0000   0.0000   0.0000   0.0000
     0.0000   0.0000   0.0000   0.0000   0.0000   0.0000   0.0000   0.0000
     0.0000

          k = 0.2633 0.1755-0.1755 ( 13201 PWs)   bands (ev):

    -5.5520  -4.3210  -3.5197  -3.5197  -3.3028  -3.0096  -2.5719  -2.5719
    -0.8178  -0.8178  -0.7457  -0.5090  -0.5090  -0.3321   0.4024   2.4094
     2.4094   2.7352   3.2762   3.3579   3.3579   3.4241   3.5485   3.5485
     3.9944   4.3432   4.3432   4.3438   4.7693   5.0135   5.4734   5.6521
     6.9839   7.0768   7.0768   7.7116   8.1008   8.1141   8.1867   8.1867
     8.4182   8.4630   8.4630   8.8961   9.2471   9.4166   9.5291   9.5617
     9.5617   9.8559  10.3625  10.3910  10.3910  10.8816  12.6909  12.6909
    12.9010  13.1466  13.3730  13.4484  13.4484  13.6164  13.6483  13.6784
    13.9148

     occupation numbers 
     1.0000   1.0000   1.0000   1.0000   1.0000   1.0000   1.0000   1.0000
     1.0000   1.0000   1.0000   1.0000   1.0000   1.0000   1.0000   1.0000
     1.0000   1.0000   1.0000   1.0000   1.0000   1.0000   1.0000   1.0000
     1.0000   1.0000   1.0000   1.0000   1.0000   1.0000   1.0000   1.0000
     0.0000   0.0000   0.0000   0.0000   0.0000   0.0000   0.0000   0.0000
     0.0000   0.0000   0.0000   0.0000   0.0000   0.0000   0.0000   0.0000
     0.0000   0.0000   0.0000   0.0000   0.0000   0.0000   0.0000   0.0000
     0.0000   0.0000   0.0000   0.0000   0.0000   0.0000   0.0000   0.0000
     0.0000

          k = 0.3072 0.2194-0.2194 ( 13188 PWs)   bands (ev):

    -5.4246  -4.5510  -3.4708  -3.4708  -3.2095  -3.1576  -2.7338  -2.7338
    -0.6806  -0.6414  -0.6414  -0.3930  -0.3930  -0.1626   0.8733   2.2942
     2.2942   2.6323   2.9162   3.2127   3.2127   3.4160   3.4639   3.4639
     3.5289   4.1747   4.1747   4.1836   4.8278   5.0992   5.3506   5.5351
     7.1342   7.2072   7.2072   7.7909   7.9488   8.0551   8.0551   8.3045
     8.6650   9.0480   9.0529   9.0529   9.4105   9.4308   9.5785  10.0068
    10.0068  10.3590  10.7795  10.8350  10.8350  11.4049  11.9612  11.9612
    12.4329  12.8185  12.8185  12.8358  12.9733  13.0720  13.3086  13.4227
    13.5153

     occupation numbers 
     1.0000   1.0000   1.0000   1.0000   1.0000   1.0000   1.0000   1.0000
     1.0000   1.0000   1.0000   1.0000   1.0000   1.0000   1.0000   1.0000
     1.0000   1.0000   1.0000   1.0000   1.0000   1.0000   1.0000   1.0000
     1.0000   1.0000   1.0000   1.0000   1.0000   1.0000   1.0000   1.0000
     0.0000   0.0000   0.0000   0.0000   0.0000   0.0000   0.0000   0.0000
     0.0000   0.0000   0.0000   0.0000   0.0000   0.0000   0.0000   0.0000
     0.0000   0.0000   0.0000   0.0000   0.0000   0.0000   0.0000   0.0000
     0.0000   0.0000   0.0000   0.0000   0.0000   0.0000   0.0000   0.0000
     0.0000

          k = 0.3510 0.2633-0.2633 ( 13185 PWs)   bands (ev):

    -5.2742  -4.7710  -3.4053  -3.4053  -3.2858  -3.1048  -2.8790  -2.8790
    -0.6222  -0.5245  -0.5245  -0.2883  -0.2883  -0.0603   1.3782   2.2683
     2.2683   2.6029   2.6138   2.8406   2.9146   2.9146   3.5876   3.5876
     3.6509   4.0063   4.0063   4.0233   4.9009   5.1956   5.2346   5.4144
     7.3036   7.3603   7.3603   7.7636   7.8720   7.8720   7.8836   8.1845
     9.1864   9.2712   9.4255   9.5408   9.6066   9.6842   9.6842  10.5232
    10.5232  10.9106  11.2425  11.2425  11.2437  11.3312  11.3312  11.7263
    11.8841  12.2028  12.2028  12.3243  12.5092  12.8907  12.9615  12.9615
    13.0744

     occupation numbers 
     1.0000   1.0000   1.0000   1.0000   1.0000   1.0000   1.0000   1.0000
     1.0000   1.0000   1.0000   1.0000   1.0000   1.0000   1.0000   1.0000
     1.0000   1.0000   1.0000   1.0000   1.0000   1.0000   1.0000   1.0000
     1.0000   1.0000   1.0000   1.0000   1.0000   1.0000   1.0000   1.0000
     0.0000   0.0000   0.0000   0.0000   0.0000   0.0000   0.0000   0.0000
     0.0000   0.0000   0.0000   0.0000   0.0000   0.0000   0.0000   0.0000
     0.0000   0.0000   0.0000   0.0000   0.0000   0.0000   0.0000   0.0000
     0.0000   0.0000   0.0000   0.0000   0.0000   0.0000   0.0000   0.0000
     0.0000

          k =-0.3072-0.3949 0.3949 ( 13182 PWs)   bands (ev):

    -5.1019  -4.9757  -3.3943  -3.3222  -3.3222  -3.0079  -3.0079  -2.9877
    -0.5904  -0.4773  -0.4773  -0.2152  -0.2152  -0.0367   1.9099   2.2765
     2.3477   2.3477   2.3588   2.6792   2.6792   2.6994   3.7272   3.7272
     3.7880   3.8443   3.8443   3.8689   4.9884   5.1285   5.2958   5.3015
     7.4894   7.5327   7.5327   7.5737   7.6776   7.6776   7.9883   8.0666
     9.2916   9.3885   9.5993   9.6258   9.9204  10.3451  10.3451  10.5042
    10.5042  10.9378  11.1184  11.1184  11.5945  11.6094  11.6094  11.6817
    11.7478  11.8700  11.8700  11.9685  12.2778  12.3637  12.3637  12.6837
    12.9594

     occupation numbers 
     1.0000   1.0000   1.0000   1.0000   1.0000   1.0000   1.0000   1.0000
     1.0000   1.0000   1.0000   1.0000   1.0000   1.0000   1.0000   1.0000
     1.0000   1.0000   1.0000   1.0000   1.0000   1.0000   1.0000   1.0000
     1.0000   1.0000   1.0000   1.0000   1.0000   1.0000   1.0000   1.0000
     0.0000   0.0000   0.0000   0.0000   0.0000   0.0000   0.0000   0.0000
     0.0000   0.0000   0.0000   0.0000   0.0000   0.0000   0.0000   0.0000
     0.0000   0.0000   0.0000   0.0000   0.0000   0.0000   0.0000   0.0000
     0.0000   0.0000   0.0000   0.0000   0.0000   0.0000   0.0000   0.0000
     0.0000

          k =-0.2633-0.3510 0.3510 ( 13175 PWs)   bands (ev):

    -5.1617  -4.9093  -3.4832  -3.2210  -3.2210  -3.1213  -3.1213  -2.8572
    -0.6075  -0.4935  -0.4935  -0.1975  -0.1975  -0.0844   1.7299   2.2066
     2.4628   2.5286   2.5286   2.5313   2.5313   2.8856   3.6933   3.6933
     3.7248   3.8800   3.8800   3.9374   5.0343   5.0891   5.1830   5.4147
     7.3928   7.4889   7.4889   7.6859   7.7189   7.7189   7.9556   8.1025
     9.3113   9.3548   9.5448   9.6622   9.8352   9.8352  10.2751  10.5988
    10.8970  10.8970  11.0614  11.1743  11.1743  11.4567  11.6967  11.6967
    11.7923  11.7923  12.1995  12.2494  12.2859  12.4418  12.4418  12.5993
    12.8253

     occupation numbers 
     1.0000   1.0000   1.0000   1.0000   1.0000   1.0000   1.0000   1.0000
     1.0000   1.0000   1.0000   1.0000   1.0000   1.0000   1.0000   1.0000
     1.0000   1.0000   1.0000   1.0000   1.0000   1.0000   1.0000   1.0000
     1.0000   1.0000   1.0000   1.0000   1.0000   1.0000   1.0000   1.0000
     0.0000   0.0000   0.0000   0.0000   0.0000   0.0000   0.0000   0.0000
     0.0000   0.0000   0.0000   0.0000   0.0000   0.0000   0.0000   0.0000
     0.0000   0.0000   0.0000   0.0000   0.0000   0.0000   0.0000   0.0000
     0.0000   0.0000   0.0000   0.0000   0.0000   0.0000   0.0000   0.0000
     0.0000

          k =-0.2194-0.3072 0.3072 ( 13187 PWs)   bands (ev):

    -5.3269  -4.6991  -3.5528  -3.2198  -3.2198  -3.1012  -3.1012  -2.7125
    -0.6891  -0.5533  -0.5533  -0.2529  -0.2529  -0.1813   1.2064   2.1604
     2.4871   2.4871   2.7920   2.7920   3.0311   3.1514   3.5566   3.5566
     3.5944   4.0423   4.0423   4.0953   4.9535   5.0787   5.2017   5.5323
     7.2284   7.3145   7.3145   7.8548   7.8818   7.9095   7.9095   8.2231
     9.1921   9.1921   9.1945   9.3787   9.4393   9.6184   9.6565  10.4493
    10.4493  10.4503  10.9799  11.2517  11.2517  11.3251  11.7675  11.7934
    11.7934  12.3014  12.3014  12.7901  12.8433  12.8520  12.9168  13.0359
    13.0359

     occupation numbers 
     1.0000   1.0000   1.0000   1.0000   1.0000   1.0000   1.0000   1.0000
     1.0000   1.0000   1.0000   1.0000   1.0000   1.0000   1.0000   1.0000
     1.0000   1.0000   1.0000   1.0000   1.0000   1.0000   1.0000   1.0000
     1.0000   1.0000   1.0000   1.0000   1.0000   1.0000   1.0000   1.0000
     0.0000   0.0000   0.0000   0.0000   0.0000   0.0000   0.0000   0.0000
     0.0000   0.0000   0.0000   0.0000   0.0000   0.0000   0.0000   0.0000
     0.0000   0.0000   0.0000   0.0000   0.0000   0.0000   0.0000   0.0000
     0.0000   0.0000   0.0000   0.0000   0.0000   0.0000   0.0000   0.0000
     0.0000

          k =-0.1755-0.2633 0.2633 ( 13197 PWs)   bands (ev):

    -5.4697  -4.4751  -3.6038  -3.3045  -3.3045  -2.9625  -2.9625  -2.5529
    -0.8357  -0.6342  -0.6342  -0.3821  -0.3821  -0.3036   0.7120   2.2173
     2.5429   2.5429   3.1139   3.1139   3.4366   3.4366   3.4712   3.4800
     3.6078   4.2089   4.2089   4.2567   4.8869   4.9847   5.3240   5.6499
     7.0850   7.1588   7.1588   7.7661   8.0530   8.0857   8.0857   8.3453
     8.5910   8.5910   8.9937   9.0489   9.2901   9.3741   9.6210   9.9108
     9.9487   9.9487  10.5452  10.7613  10.7613  11.2508  12.0525  12.5153
    12.5153  12.8436  12.9202  12.9202  13.2557  13.3119  13.4396  13.4990
    13.6393

     occupation numbers 
     1.0000   1.0000   1.0000   1.0000   1.0000   1.0000   1.0000   1.0000
     1.0000   1.0000   1.0000   1.0000   1.0000   1.0000   1.0000   1.0000
     1.0000   1.0000   1.0000   1.0000   1.0000   1.0000   1.0000   1.0000
     1.0000   1.0000   1.0000   1.0000   1.0000   1.0000   1.0000   1.0000
     0.0000   0.0000   0.0000   0.0000   0.0000   0.0000   0.0000   0.0000
     0.0000   0.0000   0.0000   0.0000   0.0000   0.0000   0.0000   0.0000
     0.0000   0.0000   0.0000   0.0000   0.0000   0.0000   0.0000   0.0000
     0.0000   0.0000   0.0000   0.0000   0.0000   0.0000   0.0000   0.0000
     0.0000

          k =-0.1316-0.2194 0.2194 ( 13200 PWs)   bands (ev):

    -5.5892  -4.2433  -3.6368  -3.3764  -3.3764  -2.8051  -2.8051  -2.3780
    -1.0330  -0.7176  -0.7176  -0.5692  -0.5692  -0.4327   0.2544   2.3572
     2.6748   2.6748   3.3350   3.3350   3.3833   3.4716   3.4716   3.8204
     4.1833   4.3727   4.3727   4.4146   4.8348   4.9022   5.4528   5.7613
     6.9656   7.0242   7.0242   7.6911   8.0444   8.0444   8.1427   8.2040
     8.2040   8.4107   8.4617   8.8927   9.1130   9.3540   9.4810   9.5279
     9.5279   9.5689  10.1605  10.3249  10.3249  10.7191  12.7802  12.9673
    13.2264  13.2264  13.3722  13.5471  13.5471  13.5682  14.0390  14.1551
    14.2336

     occupation numbers 
     1.0000   1.0000   1.0000   1.0000   1.0000   1.0000   1.0000   1.0000
     1.0000   1.0000   1.0000   1.0000   1.0000   1.0000   1.0000   1.0000
     1.0000   1.0000   1.0000   1.0000   1.0000   1.0000   1.0000   1.0000
     1.0000   1.0000   1.0000   1.0000   1.0000   1.0000   1.0000   1.0000
     0.0000   0.0000   0.0000   0.0000   0.0000   0.0000   0.0000   0.0000
     0.0000   0.0000   0.0000   0.0000   0.0000   0.0000   0.0000   0.0000
     0.0000   0.0000   0.0000   0.0000   0.0000   0.0000   0.0000   0.0000
     0.0000   0.0000   0.0000   0.0000   0.0000   0.0000   0.0000   0.0000
     0.0000

          k =-0.0878-0.1755 0.1755 ( 13212 PWs)   bands (ev):

    -5.6847  -4.0139  -3.6529  -3.4365  -3.4365  -2.6292  -2.6292  -2.1878
    -1.2621  -0.7928  -0.7928  -0.7906  -0.7906  -0.5556  -0.1552   2.5520
     2.8474   2.8474   3.2531   3.2531   3.3057   3.8426   3.8426   4.1734
     4.5241   4.5241   4.5599   4.7413   4.7976   4.8320   5.5836   5.8580
     6.8722   6.9109   6.9109   7.5702   7.5702   7.6308   7.8806   8.0550
[...]
     0.0000   0.0000   0.0000   0.0000   0.0000   0.0000   0.0000   0.0000
     0.0000

          k = 0.0000-0.3510 0.5266 ( 13165 PWs)   bands (ev):

    -4.9801  -4.4750  -4.4750  -3.9652  -3.0667  -2.8395  -2.8395  -2.4758
    -0.8772  -0.6338  -0.6338  -0.2152   0.8954   1.3661   1.3661   1.6924
     2.0846   2.0846   2.2039   2.5057   2.9430   3.3055   3.5546   3.5546
     3.6257   3.6727   3.6727   3.8221   3.8717   4.5215   4.5215   5.2715
     7.7856   8.1270   8.2818   8.2818   8.7941   8.9063   8.9063   9.1412
     9.2416   9.2616   9.7136   9.8152   9.8152   9.8569   9.8569  10.2646
    10.2675  10.4848  10.4848  10.7720  10.9671  11.0200  11.0200  11.3325
    11.9595  11.9595  12.1243  12.6323  12.6420  12.7309  12.9435  12.9435
    13.0628

     occupation numbers 
     1.0000   1.0000   1.0000   1.0000   1.0000   1.0000   1.0000   1.0000
     1.0000   1.0000   1.0000   1.0000   1.0000   1.0000   1.0000   1.0000
     1.0000   1.0000   1.0000   1.0000   1.0000   1.0000   1.0000   1.0000
     1.0000   1.0000   1.0000   1.0000   1.0000   1.0000   1.0000   1.0000
     0.0000   0.0000   0.0000   0.0000   0.0000   0.0000   0.0000   0.0000
     0.0000   0.0000   0.0000   0.0000   0.0000   0.0000   0.0000   0.0000
     0.0000   0.0000   0.0000   0.0000   0.0000   0.0000   0.0000   0.0000
     0.0000   0.0000   0.0000   0.0000   0.0000   0.0000   0.0000   0.0000
     0.0000

          k =-0.0878-0.5266 0.7021 ( 13175 PWs)   bands (ev):

    -4.9573  -4.4370  -4.2224  -4.2224  -3.3385  -3.3385  -2.2820  -2.1133
    -1.1605  -0.9815  -0.0831  -0.0831   1.0147   1.0147   1.7287   1.8724
     2.0171   2.0904   2.0904   2.7068   2.7082   2.8392   2.8933   2.8933
     3.6550   4.0080   4.1075   4.1876   4.1876   4.5968   4.7724   4.7724
     7.3470   7.7096   8.4124   8.4124   8.9151   8.9204   8.9718   8.9718
     9.4910   9.4910   9.7288   9.7449   9.9024  10.4419  10.4419  10.5138
    10.6646  10.7380  10.9555  10.9555  11.0520  11.2302  11.2302  11.4627
    11.5539  11.5698  11.7960  11.7960  12.1392  12.1392  12.1654  12.5033
    13.1465

     occupation numbers 
     1.0000   1.0000   1.0000   1.0000   1.0000   1.0000   1.0000   1.0000
     1.0000   1.0000   1.0000   1.0000   1.0000   1.0000   1.0000   1.0000
     1.0000   1.0000   1.0000   1.0000   1.0000   1.0000   1.0000   1.0000
     1.0000   1.0000   1.0000   1.0000   1.0000   1.0000   1.0000   1.0000
     0.0000   0.0000   0.0000   0.0000   0.0000   0.0000   0.0000   0.0000
     0.0000   0.0000   0.0000   0.0000   0.0000   0.0000   0.0000   0.0000
     0.0000   0.0000   0.0000   0.0000   0.0000   0.0000   0.0000   0.0000
     0.0000   0.0000   0.0000   0.0000   0.0000   0.0000   0.0000   0.0000
     0.0000

          k =-0.0439-0.4827 0.6582 ( 13183 PWs)   bands (ev):

    -4.8003  -4.5413  -4.4358  -4.1893  -3.2969  -3.1119  -2.4022  -2.3044
    -0.9823  -0.8769  -0.2705  -0.0553   1.0676   1.4144   1.8479   1.8561
     1.8844   1.9330   2.0482   2.3157   2.8291   2.8952   2.9695   3.0490
     3.6499   3.8840   3.9763   4.0331   4.1977   4.5124   4.5637   4.9120
     7.6270   7.8091   8.2424   8.7437   9.0498   9.0900   9.1569   9.2727
     9.3492   9.3535   9.6601   9.6699  10.0036  10.1965  10.5691  10.6294
    10.6494  10.6912  10.8579  10.8864  10.9998  11.0392  11.2032  11.2590
    11.3482  11.5177  11.7630  11.8130  11.9004  12.4255  12.5388  12.6295
    12.9215

     occupation numbers 
     1.0000   1.0000   1.0000   1.0000   1.0000   1.0000   1.0000   1.0000
     1.0000   1.0000   1.0000   1.0000   1.0000   1.0000   1.0000   1.0000
     1.0000   1.0000   1.0000   1.0000   1.0000   1.0000   1.0000   1.0000
     1.0000   1.0000   1.0000   1.0000   1.0000   1.0000   1.0000   1.0000
     0.0000   0.0000   0.0000   0.0000   0.0000   0.0000   0.0000   0.0000
     0.0000   0.0000   0.0000   0.0000   0.0000   0.0000   0.0000   0.0000
     0.0000   0.0000   0.0000   0.0000   0.0000   0.0000   0.0000   0.0000
     0.0000   0.0000   0.0000   0.0000   0.0000   0.0000   0.0000   0.0000
     0.0000

          k = 0.0000-0.4388 0.6143 ( 13208 PWs)   bands (ev):

    -4.6323  -4.6220  -4.6220  -4.1333  -3.2374  -2.8869  -2.5189  -2.5189
    -0.8018  -0.8018  -0.4807  -0.0772   1.0507   1.7646   1.7836   1.8924
     1.8924   1.8931   1.8931   2.0722   2.8389   3.1267   3.1267   3.2743
     3.6934   3.6934   3.7428   3.8881   4.3266   4.4092   4.4092   5.0444
     7.9293   7.9293   8.0806   8.8289   9.1481   9.1620   9.1915   9.1953
     9.1953   9.6780   9.6780   9.7544   9.8769  10.0920  10.1561  10.1561
    10.5525  10.5525  10.6736  10.6977  10.9004  11.2639  11.3010  11.3010
    11.4025  11.4025  11.9256  12.0817  12.3719  12.3719  12.7082  12.8120
    13.0721

     occupation numbers 
     1.0000   1.0000   1.0000   1.0000   1.0000   1.0000   1.0000   1.0000
     1.0000   1.0000   1.0000   1.0000   1.0000   1.0000   1.0000   1.0000
     1.0000   1.0000   1.0000   1.0000   1.0000   1.0000   1.0000   1.0000
     1.0000   1.0000   1.0000   1.0000   1.0000   1.0000   1.0000   1.0000
     0.0000   0.0000   0.0000   0.0000   0.0000   0.0000   0.0000   0.0000
     0.0000   0.0000   0.0000   0.0000   0.0000   0.0000   0.0000   0.0000
     0.0000   0.0000   0.0000   0.0000   0.0000   0.0000   0.0000   0.0000
     0.0000   0.0000   0.0000   0.0000   0.0000   0.0000   0.0000   0.0000
     0.0000

          k =-0.7021 0.1755 0.0000 ( 13196 PWs)   bands (ev):

    -4.7125  -4.7125  -4.2347  -4.2347  -3.3402  -3.3402  -2.1949  -2.1949
    -1.0656  -1.0656  -0.0147  -0.0147   1.1200   1.1200   1.9157   1.9157
     1.9908   1.9908   2.2229   2.2229   2.7515   2.7515   2.7714   2.7714
     3.8686   3.8686   4.1768   4.1768   4.2887   4.2887   4.7738   4.7738
     7.5169   7.5169   8.4011   8.4011   9.0030   9.0030   9.3355   9.3355
     9.5597   9.5597   9.5791   9.5791  10.4141  10.4141  10.6496  10.6496
    10.8543  10.8543  10.9818  10.9818  11.0779  11.0779  11.1783  11.1783
    11.6024  11.6024  11.6025  11.6025  11.7815  11.7815  12.2965  12.2965
    12.9795

     occupation numbers 
     1.0000   1.0000   1.0000   1.0000   1.0000   1.0000   1.0000   1.0000
     1.0000   1.0000   1.0000   1.0000   1.0000   1.0000   1.0000   1.0000
     1.0000   1.0000   1.0000   1.0000   1.0000   1.0000   1.0000   1.0000
     1.0000   1.0000   1.0000   1.0000   1.0000   1.0000   1.0000   1.0000
     0.0000   0.0000   0.0000   0.0000   0.0000   0.0000   0.0000   0.0000
     0.0000   0.0000   0.0000   0.0000   0.0000   0.0000   0.0000   0.0000
     0.0000   0.0000   0.0000   0.0000   0.0000   0.0000   0.0000   0.0000
     0.0000   0.0000   0.0000   0.0000   0.0000   0.0000   0.0000   0.0000
     0.0000

          k =-0.1755-0.4388 0.7021 ( 13176 PWs)   bands (ev):

    -5.0912  -4.3438  -4.3438  -4.0619  -3.0872  -3.0872  -2.7248  -2.2550
    -1.0714  -0.5594  -0.4525  -0.4525   1.0622   1.0622   1.0809   1.7604
     2.1635   2.2023   2.2023   2.8527   2.9865   3.2185   3.3009   3.4345
     3.4345   3.8061   3.8921   3.8921   4.1091   4.6722   4.6722   5.1247
     7.6202   7.9998   8.3165   8.6328   8.6328   8.6625   8.6625   8.8306
     9.0956   9.4620   9.4620   9.5258   9.5599   9.9275   9.9275  10.4063
    10.6722  10.6947  10.7565  10.7757  10.7757  11.0689  11.0689  11.4302
    12.0730  12.0730  12.0807  12.3721  12.3721  12.4756  12.6929  12.9972
    13.6428

     occupation numbers 
     1.0000   1.0000   1.0000   1.0000   1.0000   1.0000   1.0000   1.0000
     1.0000   1.0000   1.0000   1.0000   1.0000   1.0000   1.0000   1.0000
     1.0000   1.0000   1.0000   1.0000   1.0000   1.0000   1.0000   1.0000
     1.0000   1.0000   1.0000   1.0000   1.0000   1.0000   1.0000   1.0000
     0.0000   0.0000   0.0000   0.0000   0.0000   0.0000   0.0000   0.0000
     0.0000   0.0000   0.0000   0.0000   0.0000   0.0000   0.0000   0.0000
     0.0000   0.0000   0.0000   0.0000   0.0000   0.0000   0.0000   0.0000
     0.0000   0.0000   0.0000   0.0000   0.0000   0.0000   0.0000   0.0000
     0.0000

          k =-0.1316-0.3949 0.6582 ( 13172 PWs)   bands (ev):

    -4.9343  -4.5583  -4.3081  -4.1669  -3.0180  -2.8741  -2.8370  -2.4438
    -0.8951  -0.5725  -0.4604  -0.4111   1.1733   1.1923   1.5256   1.7425
     1.9648   2.0852   2.0969   2.4413   3.1720   3.1801   3.2845   3.4249
     3.5423   3.6475   3.7247   3.8673   3.9959   4.4449   4.7950   5.0318
     7.9180   8.1354   8.4430   8.4570   8.4626   8.6320   9.0328   9.2378
     9.3509   9.5144   9.5555   9.7405   9.8446   9.8744  10.2755  10.3411
    10.4168  10.5826  10.6479  10.6661  10.8837  10.9079  11.2221  11.3753
    11.4217  11.7757  12.1234  12.3007  12.3169  12.7861  12.9319  13.0499
    13.1397

     occupation numbers 
     1.0000   1.0000   1.0000   1.0000   1.0000   1.0000   1.0000   1.0000
     1.0000   1.0000   1.0000   1.0000   1.0000   1.0000   1.0000   1.0000
     1.0000   1.0000   1.0000   1.0000   1.0000   1.0000   1.0000   1.0000
     1.0000   1.0000   1.0000   1.0000   1.0000   1.0000   1.0000   1.0000
     0.0000   0.0000   0.0000   0.0000   0.0000   0.0000   0.0000   0.0000
     0.0000   0.0000   0.0000   0.0000   0.0000   0.0000   0.0000   0.0000
     0.0000   0.0000   0.0000   0.0000   0.0000   0.0000   0.0000   0.0000
     0.0000   0.0000   0.0000   0.0000   0.0000   0.0000   0.0000   0.0000
     0.0000

          k =-0.0878-0.3510 0.6143 ( 13184 PWs)   bands (ev):

    -4.7561  -4.7561  -4.2491  -4.2491  -2.9348  -2.9348  -2.6566  -2.6566
    -0.7211  -0.7211  -0.4106  -0.4106   1.2232   1.2232   1.8094   1.8094
     1.9913   1.9913   2.0572   2.0572   3.1962   3.1962   3.4003   3.4003
     3.5673   3.5673   3.6830   3.6830   4.2139   4.2139   4.9179   4.9179
     8.2034   8.2034   8.2890   8.2890   8.5580   8.5580   9.4614   9.4614
     9.5412   9.5412   9.5859   9.5859   9.7271   9.7271  10.3698  10.3698
    10.5962  10.5962  10.7541  10.7541  10.7818  10.7818  10.9210  10.9210
    11.8623  11.8623  12.0781  12.0781  12.3483  12.3483  13.3197  13.3197
    13.4606

     occupation numbers 
     1.0000   1.0000   1.0000   1.0000   1.0000   1.0000   1.0000   1.0000
     1.0000   1.0000   1.0000   1.0000   1.0000   1.0000   1.0000   1.0000
     1.0000   1.0000   1.0000   1.0000   1.0000   1.0000   1.0000   1.0000
     1.0000   1.0000   1.0000   1.0000   1.0000   1.0000   1.0000   1.0000
     0.0000   0.0000   0.0000   0.0000   0.0000   0.0000   0.0000   0.0000
     0.0000   0.0000   0.0000   0.0000   0.0000   0.0000   0.0000   0.0000
     0.0000   0.0000   0.0000   0.0000   0.0000   0.0000   0.0000   0.0000
     0.0000   0.0000   0.0000   0.0000   0.0000   0.0000   0.0000   0.0000
     0.0000

          k =-0.0878-0.4388 0.7021 ( 13175 PWs)   bands (ev):

    -4.8794  -4.3836  -4.3836  -4.3639  -3.0721  -3.0721  -2.6101  -2.3702
    -0.9362  -0.6743  -0.3300  -0.3300   1.3120   1.3120   1.5372   1.7771
     1.9791   1.9791   1.9854   2.4218   3.0175   3.1567   3.1567   3.1886
     3.4002   3.8423   3.8423   3.8485   4.1057   4.6931   4.6931   4.7792
     7.7610   8.1145   8.5600   8.5934   8.5934   8.8763   8.8763   9.2055
     9.4591   9.4591   9.7618   9.7777   9.7947  10.3277  10.3277  10.3594
    10.4006  10.6058  10.6058  10.9563  10.9800  11.0428  11.1865  11.1865
    11.6250  11.6250  11.7078  11.7496  12.1036  12.7724  12.7724  13.0969
    13.4671

     occupation numbers 
     1.0000   1.0000   1.0000   1.0000   1.0000   1.0000   1.0000   1.0000
     1.0000   1.0000   1.0000   1.0000   1.0000   1.0000   1.0000   1.0000
     1.0000   1.0000   1.0000   1.0000   1.0000   1.0000   1.0000   1.0000
     1.0000   1.0000   1.0000   1.0000   1.0000   1.0000   1.0000   1.0000
     0.0000   0.0000   0.0000   0.0000   0.0000   0.0000   0.0000   0.0000
     0.0000   0.0000   0.0000   0.0000   0.0000   0.0000   0.0000   0.0000
     0.0000   0.0000   0.0000   0.0000   0.0000   0.0000   0.0000   0.0000
     0.0000   0.0000   0.0000   0.0000   0.0000   0.0000   0.0000   0.0000
     0.0000

          k =-0.0439-0.3949 0.6582 ( 13185 PWs)   bands (ev):

    -4.7084  -4.5866  -4.4522  -4.3346  -3.0085  -2.8468  -2.7085  -2.5755
    -0.7491  -0.6020  -0.5126  -0.3292   1.3475   1.6156   1.7257   1.8057
     1.8191   1.9224   1.9618   2.0310   3.1027   3.2339   3.3239   3.3281
     3.3830   3.6017   3.6130   3.6881   4.3286   4.4568   4.6801   4.8223
     8.0743   8.2513   8.4266   8.5945   8.7032   8.7616   9.0057   9.3268
     9.5153   9.6002   9.8023   9.8191  10.0353  10.1048  10.1259  10.3058
    10.4848  10.5100  10.7221  10.7991  10.8099  10.9844  11.0383  11.1581
    11.5133  11.6303  11.6941  11.7311  12.3007  12.8601  13.0230  13.2970
    13.3076

     occupation numbers 
     1.0000   1.0000   1.0000   1.0000   1.0000   1.0000   1.0000   1.0000
     1.0000   1.0000   1.0000   1.0000   1.0000   1.0000   1.0000   1.0000
     1.0000   1.0000   1.0000   1.0000   1.0000   1.0000   1.0000   1.0000
     1.0000   1.0000   1.0000   1.0000   1.0000   1.0000   1.0000   1.0000
     0.0000   0.0000   0.0000   0.0000   0.0000   0.0000   0.0000   0.0000
     0.0000   0.0000   0.0000   0.0000   0.0000   0.0000   0.0000   0.0000
     0.0000   0.0000   0.0000   0.0000   0.0000   0.0000   0.0000   0.0000
     0.0000   0.0000   0.0000   0.0000   0.0000   0.0000   0.0000   0.0000
     0.0000

          k =-0.0000-0.3510 0.6143 ( 13192 PWs)   bands (ev):

    -4.7708  -4.5171  -4.5171  -4.2623  -2.9301  -2.7965  -2.7965  -2.6297
    -0.7108  -0.5688  -0.5688  -0.3739   1.3054   1.6085   1.6085   1.7423
     1.9122   1.9122   2.0049   2.1078   3.1195   3.3674   3.4287   3.4287
     3.4785   3.4785   3.5476   3.5622   4.2165   4.5644   4.5644   4.9393
     8.2639   8.2726   8.3767   8.3767   8.6034   8.8622   8.8622   9.4722
     9.5497   9.5911   9.8064   9.8457   9.8457  10.2308  10.2308  10.2486
    10.2486  10.3782  10.4685  10.5323  10.8346  11.1776  11.2993  11.2993
    11.4472  11.4472  11.8793  12.0221  12.2507  12.9596  12.9596  13.1849
    13.4987

     occupation numbers 
     1.0000   1.0000   1.0000   1.0000   1.0000   1.0000   1.0000   1.0000
     1.0000   1.0000   1.0000   1.0000   1.0000   1.0000   1.0000   1.0000
     1.0000   1.0000   1.0000   1.0000   1.0000   1.0000   1.0000   1.0000
     1.0000   1.0000   1.0000   1.0000   1.0000   1.0000   1.0000   1.0000
     0.0000   0.0000   0.0000   0.0000   0.0000   0.0000   0.0000   0.0000
     0.0000   0.0000   0.0000   0.0000   0.0000   0.0000   0.0000   0.0000
     0.0000   0.0000   0.0000   0.0000   0.0000   0.0000   0.0000   0.0000
     0.0000   0.0000   0.0000   0.0000   0.0000   0.0000   0.0000   0.0000
     0.0000

          k =-0.7021 0.2633 0.0000 ( 13188 PWs)   bands (ev):

    -4.6367  -4.6367  -4.3969  -4.3969  -3.0677  -3.0677  -2.4902  -2.4902
    -0.8019  -0.8019  -0.2800  -0.2800   1.4167   1.4167   1.8540   1.8540
     1.8955   1.8955   1.9839   1.9839   3.0418   3.0418   3.0883   3.0883
     3.6110   3.6110   3.8258   3.8258   4.4338   4.4338   4.6998   4.6998
     7.9273   7.9273   8.5797   8.5797   8.9810   8.9810   9.1809   9.1809
     9.4437   9.4437   9.5891   9.5891  10.4481  10.4481  10.4810  10.4810
    10.5651  10.5651  10.5772  10.5772  10.9775  10.9775  11.3034  11.3034
    11.3578  11.3578  11.5236  11.5236  12.3507  12.3507  12.9816  12.9816
    13.3472

     occupation numbers 
     1.0000   1.0000   1.0000   1.0000   1.0000   1.0000   1.0000   1.0000
     1.0000   1.0000   1.0000   1.0000   1.0000   1.0000   1.0000   1.0000
     1.0000   1.0000   1.0000   1.0000   1.0000   1.0000   1.0000   1.0000
     1.0000   1.0000   1.0000   1.0000   1.0000   1.0000   1.0000   1.0000
     0.0000   0.0000   0.0000   0.0000   0.0000   0.0000   0.0000   0.0000
     0.0000   0.0000   0.0000   0.0000   0.0000   0.0000   0.0000   0.0000
     0.0000   0.0000   0.0000   0.0000   0.0000   0.0000   0.0000   0.0000
     0.0000   0.0000   0.0000   0.0000   0.0000   0.0000   0.0000   0.0000
     0.0000

          k =-0.7021 0.3510 0.0000 ( 13164 PWs)   bands (ev):

    -4.5312  -4.5312  -4.5312  -4.5312  -2.7828  -2.7828  -2.7828  -2.7828
    -0.5412  -0.5412  -0.5412  -0.5412   1.7086   1.7086   1.7086   1.7086
     1.8486   1.8486   1.8486   1.8486   3.3268   3.3268   3.3268   3.3268
     3.4535   3.4535   3.4535   3.4535   4.5787   4.5787   4.5787   4.5787
     8.4243   8.4243   8.4243   8.4243   8.8473   8.8473   8.8473   8.8473
     9.8031   9.8031   9.8031   9.8031  10.1896  10.1897  10.1897  10.1897
    10.4973  10.4973  10.4973  10.4973  11.1478  11.1478  11.1478  11.1478
    11.4215  11.4215  11.4215  11.4215  12.9453  12.9453  12.9453  12.9453
    13.6965

     occupation numbers 
     1.0000   1.0000   1.0000   1.0000   1.0000   1.0000   1.0000   1.0000
     1.0000   1.0000   1.0000   1.0000   1.0000   1.0000   1.0000   1.0000
     1.0000   1.0000   1.0000   1.0000   1.0000   1.0000   1.0000   1.0000
     1.0000   1.0000   1.0000   1.0000   1.0000   1.0000   1.0000   1.0000
     0.0000   0.0000   0.0000   0.0000   0.0000   0.0000   0.0000   0.0000
     0.0000   0.0000   0.0000   0.0000   0.0000   0.0000   0.0000   0.0000
     0.0000   0.0000   0.0000   0.0000   0.0000   0.0000   0.0000   0.0000
     0.0000   0.0000   0.0000   0.0000   0.0000   0.0000   0.0000   0.0000
     0.0000

     the Fermi energy is     5.9807 ev

     Writing output data file si.save/

     init_run     :      1.23s CPU      1.40s WALL (       1 calls)
     electrons    :   1321.96s CPU   1352.66s WALL (       1 calls)

     Called by init_run:
     wfcinit      :      0.00s CPU      0.00s WALL (       1 calls)
     wfcinit:atom :      0.23s CPU      0.25s WALL (     145 calls)
     wfcinit:wfcr :     39.62s CPU     41.15s WALL (     145 calls)
     potinit      :      0.24s CPU      0.29s WALL (       1 calls)
     hinit0       :      0.53s CPU      0.54s WALL (       1 calls)

     Called by electrons:
     c_bands      :   1320.94s CPU   1351.62s WALL (       1 calls)
     v_of_rho     :      0.21s CPU      0.24s WALL (       1 calls)
     v_h          :      0.01s CPU      0.02s WALL (       1 calls)
     v_xc         :      0.20s CPU      0.22s WALL (       1 calls)
     newd         :      0.28s CPU      0.39s WALL (       1 calls)

     Called by c_bands:
     init_us_2    :      0.47s CPU      0.61s WALL (     145 calls)
     cegterg      :   1275.78s CPU   1304.49s WALL (     404 calls)

     Called by sum_band:

     Called by *egterg:
     h_psi        :    663.59s CPU    687.67s WALL (    7474 calls)
     s_psi        :    108.71s CPU    109.46s WALL (    7474 calls)
     g_psi        :      3.88s CPU      4.06s WALL (    6925 calls)
     cdiaghg      :    230.88s CPU    231.56s WALL (    7070 calls)
     cegterg:over :    128.43s CPU    129.94s WALL (    6925 calls)
     cegterg:upda :     91.31s CPU     91.34s WALL (    6925 calls)
     cegterg:last :     66.40s CPU     66.50s WALL (    1086 calls)

     Called by h_psi:
     h_psi:pot    :    660.70s CPU    684.53s WALL (    7474 calls)
     h_psi:calbec :    112.93s CPU    116.31s WALL (    7474 calls)
     vloc_psi     :    436.04s CPU    456.32s WALL (    7474 calls)
     add_vuspsi   :    111.64s CPU    111.86s WALL (    7474 calls)

     General routines
     calbec       :    112.90s CPU    116.29s WALL (    7474 calls)
     fft          :      0.14s CPU      0.16s WALL (      13 calls)
     ffts         :      0.00s CPU      0.00s WALL (       1 calls)
     fftw         :    382.11s CPU    400.00s WALL (  405554 calls)
     interpolate  :      0.02s CPU      0.02s WALL (       1 calls)
     davcio       :      0.16s CPU      0.47s WALL (     290 calls)

     Parallel routines
     fft_scatt_xy :     46.88s CPU     49.10s WALL (  405568 calls)
     fft_scatt_yz :     78.45s CPU     83.21s WALL (  405568 calls)

     PWSCF        :  22m 5.72s CPU  22m38.70s WALL


   This run was terminated on:  17:25:55  12Aug2019            

=------------------------------------------------------------------------------=
   JOB DONE.
=------------------------------------------------------------------------------=
