
     Program PWSCF v.6.4.1 starts on 13Aug2019 at 16:49:24 

     This program is part of the open-source Quantum ESPRESSO suite
     for quantum simulation of materials; please cite
         "P. Giannozzi et al., J. Phys.:Condens. Matter 21 395502 (2009);
         "P. Giannozzi et al., J. Phys.:Condens. Matter 29 465901 (2017);
          URL http://www.quantum-espresso.org", 
     in publications or presentations arising from this work. More details at
     http://www.quantum-espresso.org/quote

     Parallel version (MPI), running on     8 processors

     MPI processes distributed on     1 nodes
     R & G space division:  proc/nbgrp/npool/nimage =       8
     Waiting for input...
     Reading input from standard input

     Current dimensions of program PWSCF are:
     Max number of different atomic species (ntypx) = 10
     Max number of k-points (npk) =  40000
     Max angular momentum in pseudopotentials (lmaxx) =  3

     Subspace diagonalization in iterative solution of the eigenvalue problem:
     a serial algorithm will be used

     Found symmetry operation: I + (  0.0000  0.0000  0.5000)
     This is a supercell, fractional translations are disabled
     Message from routine setup:
     DEPRECATED: symmetry with ibrav=0, use correct ibrav instead

     Parallelization info
     --------------------
     sticks:   dense  smooth     PW     G-vecs:    dense   smooth      PW
     Min         331     331     93                11264    11264    1671
     Max         332     332     94                11267    11267    1673
     Sum        2653    2653    745                90129    90129   13371



     bravais-lattice index     =            0
     lattice parameter (alat)  =      14.5131  a.u.
     unit-cell volume          =    2208.2871 (a.u.)^3
     number of atoms/cell      =           16
     number of atomic types    =            1
     number of electrons       =        64.00
     number of Kohn-Sham states=           65
     kinetic-energy cutoff     =      45.0000  Ry
     charge density cutoff     =     180.0000  Ry
     convergence threshold     =      1.0E-10
     mixing beta               =       0.7000
     number of iterations used =            8  plain     mixing
     Exchange-correlation      = PBE ( 1  4  3  4 0 0)

     celldm(1)=  14.513150  celldm(2)=   0.000000  celldm(3)=   0.000000
     celldm(4)=   0.000000  celldm(5)=   0.000000  celldm(6)=   0.000000

     crystal axes: (cart. coord. in units of alat)
               a(1) = (  -0.000000   0.712164   0.712164 )  
               a(2) = (   0.712164  -0.000000   0.712164 )  
               a(3) = (   0.712164   0.712164  -0.000000 )  

     reciprocal axes: (cart. coord. in units 2 pi/alat)
               b(1) = ( -0.702085  0.702085  0.702085 )  
               b(2) = (  0.702085 -0.702085  0.702085 )  
               b(3) = (  0.702085  0.702085 -0.702085 )  


     PseudoPot. # 1 for Si read from file:
     ./Si.pbe-n-rrkjus_psl.1.0.0.UPF
     MD5 check sum: fa25574f73a70a4139f2adfbefec430c
     Pseudo is Ultrasoft + core correction, Zval =  4.0
     Generated using "atomic" code by A. Dal Corso v.6.3
     Using radial grid of 1141 points,  6 beta functions with: 
                l(1) =   0
                l(2) =   0
                l(3) =   1
                l(4) =   1
                l(5) =   2
                l(6) =   2
     Q(r) pseudized with 0 coefficients 


     atomic species   valence    mass     pseudopotential
        Si             4.00    28.08550     Si( 1.00)

     24 Sym. Ops. (no inversion) found


                                    s                        frac. trans.

      isym =  1     identity                                     

 cryst.   s( 1) = (     1          0          0      )
                  (     0          1          0      )
                  (     0          0          1      )

 cart.    s( 1) = (  1.0000000  0.0000000  0.0000000 )
                  (  0.0000000  1.0000000  0.0000000 )
                  (  0.0000000  0.0000000  1.0000000 )


      isym =  2     180 deg rotation - cart. axis [0,0,1]        

 cryst.   s( 2) = (     0          1         -1      )
                  (     1          0         -1      )
                  (     0          0         -1      )

 cart.    s( 2) = ( -1.0000000  0.0000000  0.0000000 )
                  (  0.0000000 -1.0000000  0.0000000 )
                  (  0.0000000  0.0000000  1.0000000 )


      isym =  3     180 deg rotation - cart. axis [0,1,0]        

 cryst.   s( 3) = (     0         -1          1      )
                  (     0         -1          0      )
                  (     1         -1          0      )

 cart.    s( 3) = ( -1.0000000  0.0000000  0.0000000 )
                  (  0.0000000  1.0000000  0.0000000 )
                  (  0.0000000  0.0000000 -1.0000000 )


      isym =  4     180 deg rotation - cart. axis [1,0,0]        

 cryst.   s( 4) = (    -1          0          0      )
                  (    -1          0          1      )
                  (    -1          1          0      )

 cart.    s( 4) = (  1.0000000  0.0000000  0.0000000 )
                  (  0.0000000 -1.0000000  0.0000000 )
                  (  0.0000000  0.0000000 -1.0000000 )


      isym =  5     120 deg rotation - cart. axis [-1,-1,-1]     

 cryst.   s( 5) = (     0          0          1      )
                  (     1          0          0      )
                  (     0          1          0      )

 cart.    s( 5) = (  0.0000000  1.0000000  0.0000000 )
                  (  0.0000000  0.0000000  1.0000000 )
                  (  1.0000000  0.0000000  0.0000000 )


      isym =  6     120 deg rotation - cart. axis [-1,1,1]       

 cryst.   s( 6) = (     1         -1          0      )
                  (     0         -1          1      )
                  (     0         -1          0      )

 cart.    s( 6) = (  0.0000000 -1.0000000  0.0000000 )
                  (  0.0000000  0.0000000  1.0000000 )
                  ( -1.0000000  0.0000000  0.0000000 )


      isym =  7     120 deg rotation - cart. axis [1,1,-1]       

 cryst.   s( 7) = (    -1          1          0      )
                  (    -1          0          0      )
                  (    -1          0          1      )

 cart.    s( 7) = (  0.0000000  1.0000000  0.0000000 )
                  (  0.0000000  0.0000000 -1.0000000 )
                  ( -1.0000000  0.0000000  0.0000000 )


      isym =  8     120 deg rotation - cart. axis [1,-1,1]       

 cryst.   s( 8) = (     0          0         -1      )
                  (     0          1         -1      )
                  (     1          0         -1      )

 cart.    s( 8) = (  0.0000000 -1.0000000  0.0000000 )
                  (  0.0000000  0.0000000 -1.0000000 )
                  (  1.0000000  0.0000000  0.0000000 )


      isym =  9     120 deg rotation - cart. axis [1,1,1]        

 cryst.   s( 9) = (     0          1          0      )
                  (     0          0          1      )
                  (     1          0          0      )

 cart.    s( 9) = (  0.0000000  0.0000000  1.0000000 )
                  (  1.0000000  0.0000000  0.0000000 )
                  (  0.0000000  1.0000000  0.0000000 )


      isym = 10     120 deg rotation - cart. axis [-1,1,-1]      

 cryst.   s(10) = (    -1          0          1      )
                  (    -1          1          0      )
                  (    -1          0          0      )

 cart.    s(10) = (  0.0000000  0.0000000  1.0000000 )
                  ( -1.0000000  0.0000000  0.0000000 )
                  (  0.0000000 -1.0000000  0.0000000 )


      isym = 11     120 deg rotation - cart. axis [1,-1,-1]      

 cryst.   s(11) = (     1          0         -1      )
                  (     0          0         -1      )
                  (     0          1         -1      )

 cart.    s(11) = (  0.0000000  0.0000000 -1.0000000 )
                  ( -1.0000000  0.0000000  0.0000000 )
                  (  0.0000000  1.0000000  0.0000000 )


      isym = 12     120 deg rotation - cart. axis [-1,-1,1]      

 cryst.   s(12) = (     0         -1          0      )
                  (     1         -1          0      )
                  (     0         -1          1      )

 cart.    s(12) = (  0.0000000  0.0000000 -1.0000000 )
                  (  1.0000000  0.0000000  0.0000000 )
                  (  0.0000000 -1.0000000  0.0000000 )


      isym = 13     inv. 180 deg rotation - cart. axis [1,1,0]   

 cryst.   s(13) = (     1          0         -1      )
                  (     0          1         -1      )
                  (     0          0         -1      )

 cart.    s(13) = (  0.0000000 -1.0000000  0.0000000 )
                  ( -1.0000000  0.0000000  0.0000000 )
                  (  0.0000000  0.0000000  1.0000000 )


      isym = 14     inv. 180 deg rotation - cart. axis [1,-1,0]  

 cryst.   s(14) = (     0          1          0      )
                  (     1          0          0      )
                  (     0          0          1      )

 cart.    s(14) = (  0.0000000  1.0000000  0.0000000 )
                  (  1.0000000  0.0000000  0.0000000 )
                  (  0.0000000  0.0000000  1.0000000 )


      isym = 15     inv.  90 deg rotation - cart. axis [0,0,-1]  

 cryst.   s(15) = (     0         -1          0      )
                  (     0         -1          1      )
                  (     1         -1          0      )

 cart.    s(15) = (  0.0000000 -1.0000000  0.0000000 )
                  (  1.0000000  0.0000000  0.0000000 )
                  (  0.0000000  0.0000000 -1.0000000 )


      isym = 16     inv.  90 deg rotation - cart. axis [0,0,1]   

 cryst.   s(16) = (    -1          0          1      )
                  (    -1          0          0      )
                  (    -1          1          0      )

 cart.    s(16) = (  0.0000000  1.0000000  0.0000000 )
                  ( -1.0000000  0.0000000  0.0000000 )
                  (  0.0000000  0.0000000 -1.0000000 )


      isym = 17     inv. 180 deg rotation - cart. axis [1,0,1]   

 cryst.   s(17) = (     1         -1          0      )
                  (     0         -1          0      )
                  (     0         -1          1      )

 cart.    s(17) = (  0.0000000  0.0000000 -1.0000000 )
                  (  0.0000000  1.0000000  0.0000000 )
                  ( -1.0000000  0.0000000  0.0000000 )


      isym = 18     inv. 180 deg rotation - cart. axis [-1,0,1]  

 cryst.   s(18) = (     0          0          1      )
                  (     0          1          0      )
                  (     1          0          0      )

 cart.    s(18) = (  0.0000000  0.0000000  1.0000000 )
                  (  0.0000000  1.0000000  0.0000000 )
                  (  1.0000000  0.0000000  0.0000000 )


      isym = 19     inv.  90 deg rotation - cart. axis [0,1,0]   

 cryst.   s(19) = (     0          0         -1      )
                  (     1          0         -1      )
                  (     0          1         -1      )

 cart.    s(19) = (  0.0000000  0.0000000 -1.0000000 )
                  (  0.0000000 -1.0000000  0.0000000 )
                  (  1.0000000  0.0000000  0.0000000 )


      isym = 20     inv.  90 deg rotation - cart. axis [0,-1,0]  

 cryst.   s(20) = (    -1          1          0      )
                  (    -1          0          1      )
                  (    -1          0          0      )

 cart.    s(20) = (  0.0000000  0.0000000  1.0000000 )
                  (  0.0000000 -1.0000000  0.0000000 )
                  ( -1.0000000  0.0000000  0.0000000 )


      isym = 21     inv. 180 deg rotation - cart. axis [0,1,1]   

 cryst.   s(21) = (    -1          0          0      )
                  (    -1          1          0      )
                  (    -1          0          1      )

 cart.    s(21) = (  1.0000000  0.0000000  0.0000000 )
                  (  0.0000000  0.0000000 -1.0000000 )
                  (  0.0000000 -1.0000000  0.0000000 )


      isym = 22     inv. 180 deg rotation - cart. axis [0,1,-1]  

 cryst.   s(22) = (     1          0          0      )
                  (     0          0          1      )
                  (     0          1          0      )

 cart.    s(22) = (  1.0000000  0.0000000  0.0000000 )
                  (  0.0000000  0.0000000  1.0000000 )
                  (  0.0000000  1.0000000  0.0000000 )


      isym = 23     inv.  90 deg rotation - cart. axis [-1,0,0]  

 cryst.   s(23) = (     0          1         -1      )
                  (     0          0         -1      )
                  (     1          0         -1      )

 cart.    s(23) = ( -1.0000000  0.0000000  0.0000000 )
                  (  0.0000000  0.0000000 -1.0000000 )
                  (  0.0000000  1.0000000  0.0000000 )


      isym = 24     inv.  90 deg rotation - cart. axis [1,0,0]   

 cryst.   s(24) = (     0         -1          1      )
                  (     1         -1          0      )
                  (     0         -1          0      )

 cart.    s(24) = ( -1.0000000  0.0000000  0.0000000 )
                  (  0.0000000  0.0000000  1.0000000 )
                  (  0.0000000 -1.0000000  0.0000000 )


   Cartesian axes

     site n.     atom                  positions (alat units)
         1           Si  tau(   1) = (   0.0000000   0.0000000   0.0000000  )
         2           Si  tau(   2) = (   0.1780411   0.1780411   0.1780411  )
         3           Si  tau(   3) = (   0.3560821   0.3560821   0.0000000  )
         4           Si  tau(   4) = (   0.5341232   0.5341232   0.1780411  )
         5           Si  tau(   5) = (   0.3560821   0.0000000   0.3560821  )
         6           Si  tau(   6) = (   0.5341232   0.1780411   0.5341232  )
         7           Si  tau(   7) = (   0.7121642   0.3560821   0.3560821  )
         8           Si  tau(   8) = (   0.8902053   0.5341232   0.5341232  )
         9           Si  tau(   9) = (   0.0000000   0.3560821   0.3560821  )
        10           Si  tau(  10) = (   0.1780411   0.5341232   0.5341232  )
        11           Si  tau(  11) = (   0.3560821   0.7121642   0.3560821  )
        12           Si  tau(  12) = (   0.5341232   0.8902053   0.5341232  )
        13           Si  tau(  13) = (   0.3560821   0.3560821   0.7121642  )
        14           Si  tau(  14) = (   0.5341232   0.5341232   0.8902053  )
        15           Si  tau(  15) = (   0.7121642   0.7121642   0.7121642  )
        16           Si  tau(  16) = (   0.8902053   0.8902053   0.8902053  )

   Crystallographic axes

     site n.     atom                  positions (cryst. coord.)
         1           Si  tau(   1) = (  0.0000000  0.0000000  0.0000000  )
         2           Si  tau(   2) = (  0.1250000  0.1250000  0.1250000  )
         3           Si  tau(   3) = (  0.0000000  0.0000000  0.5000000  )
         4           Si  tau(   4) = (  0.1250000  0.1250000  0.6250000  )
         5           Si  tau(   5) = (  0.0000000  0.5000000  0.0000000  )
         6           Si  tau(   6) = (  0.1250000  0.6250000  0.1250000  )
         7           Si  tau(   7) = (  0.0000000  0.5000000  0.5000000  )
         8           Si  tau(   8) = (  0.1250000  0.6250000  0.6250000  )
         9           Si  tau(   9) = (  0.5000000  0.0000000  0.0000000  )
        10           Si  tau(  10) = (  0.6250000  0.1250000  0.1250000  )
        11           Si  tau(  11) = (  0.5000000  0.0000000  0.5000000  )
        12           Si  tau(  12) = (  0.6250000  0.1250000  0.6250000  )
        13           Si  tau(  13) = (  0.5000000  0.5000000  0.0000000  )
        14           Si  tau(  14) = (  0.6250000  0.6250000  0.1250000  )
        15           Si  tau(  15) = (  0.5000000  0.5000000  0.5000000  )
        16           Si  tau(  16) = (  0.6250000  0.6250000  0.6250000  )

     number of k points=    29
                       cart. coord. in units 2pi/alat
        k(    1) = (   0.0000000   0.0000000   0.0000000), wk =   0.0039062
        k(    2) = (   0.0877607   0.0877607  -0.0877607), wk =   0.0312500
        k(    3) = (   0.1755213   0.1755213  -0.1755213), wk =   0.0312500
        k(    4) = (   0.2632820   0.2632820  -0.2632820), wk =   0.0312500
        k(    5) = (  -0.3510426  -0.3510426   0.3510426), wk =   0.0156250
        k(    6) = (   0.1755213   0.0000000   0.0000000), wk =   0.0234375
        k(    7) = (   0.2632820   0.0877607  -0.0877607), wk =   0.0937500
        k(    8) = (   0.3510426   0.1755213  -0.1755213), wk =   0.0937500
        k(    9) = (  -0.2632820  -0.4388033   0.4388033), wk =   0.0937500
        k(   10) = (  -0.1755213  -0.3510426   0.3510426), wk =   0.0937500
        k(   11) = (  -0.0877607  -0.2632820   0.2632820), wk =   0.0937500
        k(   12) = (   0.0000000  -0.1755213   0.1755213), wk =   0.0468750
        k(   13) = (   0.3510426   0.0000000   0.0000000), wk =   0.0234375
        k(   14) = (   0.4388033   0.0877607  -0.0877607), wk =   0.0937500
        k(   15) = (  -0.1755213  -0.5265639   0.5265639), wk =   0.0937500
        k(   16) = (  -0.0877607  -0.4388033   0.4388033), wk =   0.0937500
        k(   17) = (   0.0000000  -0.3510426   0.3510426), wk =   0.0468750
        k(   18) = (   0.5265639   0.0000000   0.0000000), wk =   0.0234375
        k(   19) = (  -0.0877607  -0.6143246   0.6143246), wk =   0.0937500
        k(   20) = (   0.0000000  -0.5265639   0.5265639), wk =   0.0468750
        k(   21) = (  -0.7020852   0.0000000   0.0000000), wk =   0.0117188
        k(   22) = (   0.3510426   0.1755213   0.0000000), wk =   0.0937500
        k(   23) = (  -0.2632820  -0.4388033   0.6143246), wk =   0.1875000
        k(   24) = (  -0.1755213  -0.3510426   0.5265639), wk =   0.0937500
        k(   25) = (  -0.1755213  -0.5265639   0.7020852), wk =   0.0937500
        k(   26) = (  -0.0877607  -0.4388033   0.6143246), wk =   0.1875000
        k(   27) = (   0.0000000  -0.3510426   0.5265639), wk =   0.0937500
        k(   28) = (  -0.7020852   0.1755213   0.0000000), wk =   0.0468750
        k(   29) = (  -0.7020852   0.3510426   0.0000000), wk =   0.0234375

                       cryst. coord.
        k(    1) = (   0.0000000   0.0000000   0.0000000), wk =   0.0039062
        k(    2) = (   0.0000000   0.0000000   0.1250000), wk =   0.0312500
        k(    3) = (   0.0000000   0.0000000   0.2500000), wk =   0.0312500
        k(    4) = (   0.0000000   0.0000000   0.3750000), wk =   0.0312500
        k(    5) = (   0.0000000   0.0000000  -0.5000000), wk =   0.0156250
        k(    6) = (   0.0000000   0.1250000   0.1250000), wk =   0.0234375
        k(    7) = (   0.0000000   0.1250000   0.2500000), wk =   0.0937500
        k(    8) = (   0.0000000   0.1250000   0.3750000), wk =   0.0937500
        k(    9) = (   0.0000000   0.1250000  -0.5000000), wk =   0.0937500
        k(   10) = (   0.0000000   0.1250000  -0.3750000), wk =   0.0937500
        k(   11) = (   0.0000000   0.1250000  -0.2500000), wk =   0.0937500
        k(   12) = (   0.0000000   0.1250000  -0.1250000), wk =   0.0468750
        k(   13) = (   0.0000000   0.2500000   0.2500000), wk =   0.0234375
        k(   14) = (   0.0000000   0.2500000   0.3750000), wk =   0.0937500
        k(   15) = (   0.0000000   0.2500000  -0.5000000), wk =   0.0937500
        k(   16) = (   0.0000000   0.2500000  -0.3750000), wk =   0.0937500
        k(   17) = (   0.0000000   0.2500000  -0.2500000), wk =   0.0468750
        k(   18) = (   0.0000000   0.3750000   0.3750000), wk =   0.0234375
        k(   19) = (   0.0000000   0.3750000  -0.5000000), wk =   0.0937500
        k(   20) = (   0.0000000   0.3750000  -0.3750000), wk =   0.0468750
        k(   21) = (   0.0000000  -0.5000000  -0.5000000), wk =   0.0117188
        k(   22) = (   0.1250000   0.2500000   0.3750000), wk =   0.0937500
        k(   23) = (   0.1250000   0.2500000  -0.5000000), wk =   0.1875000
        k(   24) = (   0.1250000   0.2500000  -0.3750000), wk =   0.0937500
        k(   25) = (   0.1250000   0.3750000  -0.5000000), wk =   0.0937500
        k(   26) = (   0.1250000   0.3750000  -0.3750000), wk =   0.1875000
        k(   27) = (   0.1250000   0.3750000  -0.2500000), wk =   0.0937500
        k(   28) = (   0.1250000  -0.5000000  -0.3750000), wk =   0.0468750
        k(   29) = (   0.2500000  -0.5000000  -0.2500000), wk =   0.0234375

     Dense  grid:    90129 G-vectors     FFT dimensions: (  64,  64,  64)

     Dynamical RAM for                 wfc:       1.40 MB

     Dynamical RAM for     wfc (w. buffer):      41.86 MB

     Dynamical RAM for           str. fact:       0.17 MB

     Dynamical RAM for           local pot:       0.00 MB

     Dynamical RAM for          nlocal pot:       6.18 MB

     Dynamical RAM for                qrad:       2.48 MB

     Dynamical RAM for          rho,v,vnew:       1.27 MB

     Dynamical RAM for               rhoin:       0.42 MB

     Dynamical RAM for            rho*nmix:       2.75 MB

     Dynamical RAM for           G-vectors:       0.73 MB

     Dynamical RAM for          h,s,v(r/c):       3.09 MB

     Dynamical RAM for          <psi|beta>:       0.29 MB

     Dynamical RAM for                 psi:       5.58 MB

     Dynamical RAM for                hpsi:       5.58 MB

     Dynamical RAM for                spsi:       5.58 MB

     Dynamical RAM for      wfcinit/wfcrot:       2.89 MB

     Dynamical RAM for           addusdens:      34.73 MB

     Dynamical RAM for          addusforce:      40.03 MB

     Dynamical RAM for         addusstress:      34.56 MB

     Estimated static dynamical RAM per process >      57.47 MB

     Estimated max dynamical RAM per process >      97.50 MB

     Estimated total dynamical RAM >     780.02 MB

     Initial potential from superposition of free atoms

     starting charge   63.99105, renormalised to   64.00000
     Starting wfcs are   64 randomized atomic wfcs +    1 random wfcs

     total cpu time spent up to now is        7.3 secs

     Self-consistent Calculation

     iteration #  1     ecut=    45.00 Ry     beta= 0.70
     Davidson diagonalization with overlap
     ethr =  1.00E-02,  avg # of iterations =  5.5

     Threshold (ethr) on eigenvalues was too large:
     Diagonalizing with lowered threshold

     Davidson diagonalization with overlap
     ethr =  6.86E-04,  avg # of iterations =  2.1

     total cpu time spent up to now is       59.4 secs

     total energy              =    -182.70330666 Ry
     Harris-Foulkes estimate   =    -182.80579253 Ry
     estimated scf accuracy    <       0.43458555 Ry

     iteration #  2     ecut=    45.00 Ry     beta= 0.70
     Davidson diagonalization with overlap
     ethr =  6.79E-04,  avg # of iterations =  1.1

     total cpu time spent up to now is       75.5 secs

     total energy              =    -182.72036107 Ry
     Harris-Foulkes estimate   =    -182.72124377 Ry
     estimated scf accuracy    <       0.01718997 Ry

     iteration #  3     ecut=    45.00 Ry     beta= 0.70
     Davidson diagonalization with overlap
     ethr =  2.69E-05,  avg # of iterations =  7.0

     total cpu time spent up to now is      101.0 secs

     total energy              =    -182.72128634 Ry
     Harris-Foulkes estimate   =    -182.72126085 Ry
     estimated scf accuracy    <       0.00033756 Ry

     iteration #  4     ecut=    45.00 Ry     beta= 0.70
     Davidson diagonalization with overlap
     ethr =  5.27E-07,  avg # of iterations =  4.4

     total cpu time spent up to now is      125.5 secs

     total energy              =    -182.72135306 Ry
     Harris-Foulkes estimate   =    -182.72135184 Ry
     estimated scf accuracy    <       0.00000123 Ry

     iteration #  5     ecut=    45.00 Ry     beta= 0.70
     Davidson diagonalization with overlap
     ethr =  1.92E-09,  avg # of iterations =  3.7

     total cpu time spent up to now is      149.9 secs

     total energy              =    -182.72135431 Ry
     Harris-Foulkes estimate   =    -182.72135434 Ry
     estimated scf accuracy    <       0.00000026 Ry

     iteration #  6     ecut=    45.00 Ry     beta= 0.70
     Davidson diagonalization with overlap
     ethr =  4.04E-10,  avg # of iterations =  2.0

     total cpu time spent up to now is      167.3 secs

     total energy              =    -182.72135440 Ry
     Harris-Foulkes estimate   =    -182.72135436 Ry
     estimated scf accuracy    <       0.00000003 Ry

     iteration #  7     ecut=    45.00 Ry     beta= 0.70
     Davidson diagonalization with overlap
     ethr =  5.02E-11,  avg # of iterations =  2.1

     total cpu time spent up to now is      186.2 secs

     total energy              =    -182.72135440 Ry
     Harris-Foulkes estimate   =    -182.72135440 Ry
     estimated scf accuracy    <          3.4E-09 Ry

     iteration #  8     ecut=    45.00 Ry     beta= 0.70
     Davidson diagonalization with overlap
     ethr =  5.37E-12,  avg # of iterations =  2.1

     total cpu time spent up to now is      204.9 secs

     total energy              =    -182.72135440 Ry
     Harris-Foulkes estimate   =    -182.72135440 Ry
     estimated scf accuracy    <          3.0E-10 Ry

     iteration #  9     ecut=    45.00 Ry     beta= 0.70
     Davidson diagonalization with overlap
     ethr =  4.70E-13,  avg # of iterations =  2.3

     total cpu time spent up to now is      225.5 secs

     End of self-consistent calculation

          k = 0.0000 0.0000 0.0000 ( 11191 PWs)   bands (ev):

    -5.8350  -3.5578  -3.5578  -3.5578  -3.5578  -1.7688  -1.7688  -1.7688
    -1.7688  -1.7688  -1.7688  -0.8905  -0.8905  -0.8905  -0.8905   3.1841
     3.1841   3.1841   3.1841   3.1841   3.1841   4.8006   4.8006   4.8006
     4.8006   4.8006   4.8006   4.8006   4.8006   5.9812   5.9812   5.9812
     6.7353   6.7353   6.7353   6.7353   6.7353   6.7353   7.4432   7.4432
     7.4432   7.4432   8.5353   8.5353   8.5353   9.0980   9.3321   9.3321
     9.3321   9.3321   9.3321   9.3321   9.3321   9.3321  13.6881  13.6881
    13.6881  13.6881  13.6993  13.8615  15.9020  15.9020  15.9020  15.9020
    15.9020

     occupation numbers 
     1.0000   1.0000   1.0000   1.0000   1.0000   1.0000   1.0000   1.0000
     1.0000   1.0000   1.0000   1.0000   1.0000   1.0000   1.0000   1.0000
     1.0000   1.0000   1.0000   1.0000   1.0000   1.0000   1.0000   1.0000
     1.0000   1.0000   1.0000   1.0000   1.0000   1.0000   1.0000   1.0000
     0.0000   0.0000   0.0000   0.0000   0.0000   0.0000   0.0000   0.0000
     0.0000   0.0000   0.0000   0.0000   0.0000   0.0000   0.0000   0.0000
     0.0000   0.0000   0.0000   0.0000   0.0000   0.0000   0.0000   0.0000
     0.0000   0.0000   0.0000   0.0000   0.0000   0.0000   0.0000   0.0000
     0.0000

          k = 0.0878 0.0878-0.0878 ( 11266 PWs)   bands (ev):

    -5.7847  -3.7529  -3.5368  -3.5368  -3.5368  -2.2182  -2.2182  -2.2182
    -1.2796  -1.2796  -1.2796  -0.8343  -0.8343  -0.8343  -0.6004   2.9940
     2.9940   2.9940   3.2261   3.2261   3.2261   4.4448   4.4448   4.4448
     4.7003   4.7003   4.7003   4.8284   4.8284   5.4488   5.8986   5.8986
     6.7542   6.7542   6.7542   7.1124   7.1124   7.1124   7.4755   7.7854
     7.7854   7.7854   8.5737   8.6566   8.6566   9.2616   9.2616   9.2616
     9.3617   9.3617   9.5067   9.5303   9.5303   9.5303  13.5373  13.5373
    13.7329  13.8417  13.8417  13.8417  14.0803  15.2925  15.2925  15.2925
    15.3214

     occupation numbers 
     1.0000   1.0000   1.0000   1.0000   1.0000   1.0000   1.0000   1.0000
     1.0000   1.0000   1.0000   1.0000   1.0000   1.0000   1.0000   1.0000
     1.0000   1.0000   1.0000   1.0000   1.0000   1.0000   1.0000   1.0000
     1.0000   1.0000   1.0000   1.0000   1.0000   1.0000   1.0000   1.0000
     0.0000   0.0000   0.0000   0.0000   0.0000   0.0000   0.0000   0.0000
     0.0000   0.0000   0.0000   0.0000   0.0000   0.0000   0.0000   0.0000
     0.0000   0.0000   0.0000   0.0000   0.0000   0.0000   0.0000   0.0000
     0.0000   0.0000   0.0000   0.0000   0.0000   0.0000   0.0000   0.0000
     0.0000

          k = 0.1755 0.1755-0.1755 ( 11278 PWs)   bands (ev):

    -5.6346  -4.1767  -3.4708  -3.4708  -3.4708  -2.6065  -2.6065  -2.6065
    -0.8015  -0.8015  -0.8015  -0.6801  -0.6801  -0.6801   0.1073   2.6207
     2.6207   2.6207   3.3505   3.3505   3.3505   3.7331   3.7331   3.7331
     4.3879   4.4471   4.4471   4.4471   4.9114   4.9114   5.6982   5.6982
     6.9143   6.9143   6.9143   7.5713   7.9686   7.9686   7.9686   8.1426
     8.1426   8.1426   8.4192   8.9512   8.9512   9.4351   9.4351   9.4702
     9.4702   9.4702  10.0762  10.0762  10.0762  10.5026  13.2267  13.2267
    13.2866  13.2866  13.2866  13.8212  14.1538  14.1538  14.1538  14.2067
    14.2067

     occupation numbers 
     1.0000   1.0000   1.0000   1.0000   1.0000   1.0000   1.0000   1.0000
     1.0000   1.0000   1.0000   1.0000   1.0000   1.0000   1.0000   1.0000
     1.0000   1.0000   1.0000   1.0000   1.0000   1.0000   1.0000   1.0000
     1.0000   1.0000   1.0000   1.0000   1.0000   1.0000   1.0000   1.0000
     0.0000   0.0000   0.0000   0.0000   0.0000   0.0000   0.0000   0.0000
     0.0000   0.0000   0.0000   0.0000   0.0000   0.0000   0.0000   0.0000
     0.0000   0.0000   0.0000   0.0000   0.0000   0.0000   0.0000   0.0000
     0.0000   0.0000   0.0000   0.0000   0.0000   0.0000   0.0000   0.0000
     0.0000

          k = 0.2633 0.2633-0.2633 ( 11270 PWs)   bands (ev):

    -5.3878  -4.6365  -3.3523  -3.3523  -3.3523  -2.9252  -2.9252  -2.9252
    -0.4794  -0.4794  -0.4794  -0.4444  -0.4444  -0.4444   1.0350   2.3832
     2.3832   2.3832   3.0242   3.0242   3.0242   3.2274   3.5518   3.5518
     3.5518   4.1305   4.1305   4.1305   5.0483   5.0483   5.4597   5.4597
     7.1776   7.1776   7.1776   7.7273   7.9074   7.9074   7.9074   8.1785
     9.1090   9.1090   9.1090   9.2708   9.2708   9.5011   9.5011  10.3984
    10.3984  10.3984  10.8775  10.8775  10.8775  11.6251  11.8629  11.8629
    11.8629  12.9083  12.9083  12.9083  12.9694  12.9694  12.9694  13.0421
    13.0421

     occupation numbers 
     1.0000   1.0000   1.0000   1.0000   1.0000   1.0000   1.0000   1.0000
     1.0000   1.0000   1.0000   1.0000   1.0000   1.0000   1.0000   1.0000
     1.0000   1.0000   1.0000   1.0000   1.0000   1.0000   1.0000   1.0000
     1.0000   1.0000   1.0000   1.0000   1.0000   1.0000   1.0000   1.0000
     0.0000   0.0000   0.0000   0.0000   0.0000   0.0000   0.0000   0.0000
     0.0000   0.0000   0.0000   0.0000   0.0000   0.0000   0.0000   0.0000
     0.0000   0.0000   0.0000   0.0000   0.0000   0.0000   0.0000   0.0000
     0.0000   0.0000   0.0000   0.0000   0.0000   0.0000   0.0000   0.0000
     0.0000

          k =-0.3510-0.3510 0.3510 ( 11276 PWs)   bands (ev):

    -5.0506  -5.0506  -3.1727  -3.1727  -3.1727  -3.1727  -3.1727  -3.1727
    -0.3462  -0.3462  -0.3462  -0.3462  -0.3462  -0.3462   2.0916   2.0916
     2.5165   2.5165   2.5165   2.5165   2.5165   2.5165   3.8189   3.8189
     3.8189   3.8189   3.8189   3.8189   5.2347   5.2347   5.2347   5.2347
     7.5246   7.5246   7.5246   7.5246   7.5246   7.5246   7.9356   7.9356
     9.4703   9.4703   9.4703   9.4703  10.4164  10.4164  10.4164  10.4164
    10.4164  10.4164  11.6238  11.6238  11.6238  11.6238  11.6238  11.6238
    11.8594  11.8594  11.8594  11.8594  11.8594  11.8594  12.7229  12.7229
    13.1774

     occupation numbers 
     1.0000   1.0000   1.0000   1.0000   1.0000   1.0000   1.0000   1.0000
     1.0000   1.0000   1.0000   1.0000   1.0000   1.0000   1.0000   1.0000
     1.0000   1.0000   1.0000   1.0000   1.0000   1.0000   1.0000   1.0000
     1.0000   1.0000   1.0000   1.0000   1.0000   1.0000   1.0000   1.0000
     0.0000   0.0000   0.0000   0.0000   0.0000   0.0000   0.0000   0.0000
     0.0000   0.0000   0.0000   0.0000   0.0000   0.0000   0.0000   0.0000
     0.0000   0.0000   0.0000   0.0000   0.0000   0.0000   0.0000   0.0000
     0.0000   0.0000   0.0000   0.0000   0.0000   0.0000   0.0000   0.0000
     0.0000

          k = 0.1755 0.0000 0.0000 ( 11262 PWs)   bands (ev):

    -5.7679  -3.6053  -3.6053  -3.6053  -3.6053  -2.6749  -1.7478  -1.7478
    -1.7478  -1.7478  -0.7825  -0.7342  -0.7342  -0.7342  -0.7342   3.0041
     3.0041   3.0041   3.0041   3.2448   3.2448   4.3885   4.3885   4.3885
     4.3885   4.7813   4.7813   4.7813   4.7813   5.5479   5.7254   5.7254
     6.6001   7.0521   7.0862   7.0862   7.0862   7.0862   7.7942   7.7942
     7.7942   7.7942   8.3775   8.8738   8.8738   9.3378   9.3378   9.3378
     9.3378   9.4668   9.4668   9.4668   9.4668   9.5127  13.2232  13.7739
    13.8742  13.8742  13.8742  13.8742  14.1525  15.0673  15.0673  15.2404
    15.2404

     occupation numbers 
     1.0000   1.0000   1.0000   1.0000   1.0000   1.0000   1.0000   1.0000
     1.0000   1.0000   1.0000   1.0000   1.0000   1.0000   1.0000   1.0000
     1.0000   1.0000   1.0000   1.0000   1.0000   1.0000   1.0000   1.0000
     1.0000   1.0000   1.0000   1.0000   1.0000   1.0000   1.0000   1.0000
     0.0000   0.0000   0.0000   0.0000   0.0000   0.0000   0.0000   0.0000
     0.0000   0.0000   0.0000   0.0000   0.0000   0.0000   0.0000   0.0000
     0.0000   0.0000   0.0000   0.0000   0.0000   0.0000   0.0000   0.0000
     0.0000   0.0000   0.0000   0.0000   0.0000   0.0000   0.0000   0.0000
     0.0000

          k = 0.2633 0.0878-0.0878 ( 11271 PWs)   bands (ev):

    -5.6509  -3.9811  -3.6205  -3.6205  -3.4043  -3.0709  -2.1673  -2.1673
    -1.2622  -1.2622  -0.7750  -0.5399  -0.5399  -0.2792  -0.1393   2.5770
     2.5770   3.1047   3.1047   3.1309   3.3465   3.6086   3.8967   3.8967
     4.3956   4.5615   4.6004   4.6004   4.6981   4.9171   5.4745   5.6322
     6.7578   7.1874   7.1874   7.4655   7.8652   7.9131   7.9131   8.1873
     8.2385   8.2385   8.3725   8.9399   9.1951   9.1951   9.2334   9.4535
     9.4678   9.4971   9.9389   9.9673   9.9673  10.2460  12.8311  13.5077
    13.5077  13.7116  13.7678  13.9734  13.9734  14.1165  14.2231  14.2316
    14.2465

     occupation numbers 
     1.0000   1.0000   1.0000   1.0000   1.0000   1.0000   1.0000   1.0000
     1.0000   1.0000   1.0000   1.0000   1.0000   1.0000   1.0000   1.0000
     1.0000   1.0000   1.0000   1.0000   1.0000   1.0000   1.0000   1.0000
     1.0000   1.0000   1.0000   1.0000   1.0000   1.0000   1.0000   1.0000
     0.0000   0.0000   0.0000   0.0000   0.0000   0.0000   0.0000   0.0000
     0.0000   0.0000   0.0000   0.0000   0.0000   0.0000   0.0000   0.0000
     0.0000   0.0000   0.0000   0.0000   0.0000   0.0000   0.0000   0.0000
     0.0000   0.0000   0.0000   0.0000   0.0000   0.0000   0.0000   0.0000
     0.0000

          k = 0.3510 0.1755-0.1755 ( 11275 PWs)   bands (ev):

    -5.4360  -4.4423  -3.5728  -3.5728  -3.3904  -3.1592  -2.5281  -2.5281
    -0.8407  -0.8407  -0.7474  -0.2918  -0.2918   0.1390   0.7244   2.2330
     2.2330   2.8299   2.8975   3.2929   3.2929   3.2983   3.2983   3.5272
     3.5899   4.2403   4.2403   4.2552   4.4694   5.1008   5.2177   5.4408
     7.0811   7.3958   7.3958   7.9958   8.0090   8.3174   8.3284   8.3284
     8.4427   8.9356   9.0236   9.0236   9.4537   9.5645   9.5645   9.6024
     9.6105  10.3342  10.6899  10.8402  10.8402  11.1437  12.0922  12.0922
    12.6829  12.6829  12.6929  13.0266  13.0316  13.1491  13.2420  13.3558
    13.5781

     occupation numbers 
     1.0000   1.0000   1.0000   1.0000   1.0000   1.0000   1.0000   1.0000
     1.0000   1.0000   1.0000   1.0000   1.0000   1.0000   1.0000   1.0000
     1.0000   1.0000   1.0000   1.0000   1.0000   1.0000   1.0000   1.0000
     1.0000   1.0000   1.0000   1.0000   1.0000   1.0000   1.0000   1.0000
     0.0000   0.0000   0.0000   0.0000   0.0000   0.0000   0.0000   0.0000
     0.0000   0.0000   0.0000   0.0000   0.0000   0.0000   0.0000   0.0000
     0.0000   0.0000   0.0000   0.0000   0.0000   0.0000   0.0000   0.0000
     0.0000   0.0000   0.0000   0.0000   0.0000   0.0000   0.0000   0.0000
     0.0000

          k =-0.2633-0.4388 0.4388 ( 11255 PWs)   bands (ev):

    -5.1281  -4.8764  -3.6271  -3.4541  -3.4541  -2.8753  -2.8289  -2.8289
    -0.7303  -0.6104  -0.6104  -0.0814  -0.0814   0.3122   1.7349   2.1988
     2.1988   2.2301   2.4604   2.7935   2.7935   2.9056   3.5603   3.5603
     3.7776   3.8587   3.8587   3.9384   4.6111   4.9955   5.1917   5.3218
     7.4601   7.6418   7.6964   7.6964   7.9722   7.9722   8.1791   8.3069
     9.1286   9.3903   9.4821   9.6755   9.8433  10.2951  10.2951  10.4801
    10.4801  10.6980  10.6980  11.3342  11.4773  11.4773  11.6387  11.7038
    11.7378  11.7508  11.9175  11.9175  12.0686  12.5216  12.7655  12.9825
    12.9825

     occupation numbers 
     1.0000   1.0000   1.0000   1.0000   1.0000   1.0000   1.0000   1.0000
     1.0000   1.0000   1.0000   1.0000   1.0000   1.0000   1.0000   1.0000
     1.0000   1.0000   1.0000   1.0000   1.0000   1.0000   1.0000   1.0000
     1.0000   1.0000   1.0000   1.0000   1.0000   1.0000   1.0000   1.0000
     0.0000   0.0000   0.0000   0.0000   0.0000   0.0000   0.0000   0.0000
     0.0000   0.0000   0.0000   0.0000   0.0000   0.0000   0.0000   0.0000
     0.0000   0.0000   0.0000   0.0000   0.0000   0.0000   0.0000   0.0000
     0.0000   0.0000   0.0000   0.0000   0.0000   0.0000   0.0000   0.0000
     0.0000

          k =-0.1755-0.3510 0.3510 ( 11267 PWs)   bands (ev):

    -5.2410  -4.7376  -3.7791  -3.2592  -3.2592  -3.0739  -3.0739  -2.5521
    -0.8630  -0.6173  -0.6173  -0.0687  -0.0687   0.1826   1.3850   1.9732
     2.5555   2.5555   2.5802   2.5802   2.8304   3.2971   3.5235   3.5235
     3.6574   3.8897   3.8897   4.0799   4.8203   4.8271   4.9449   5.5609
     7.2963   7.5968   7.5968   7.8686   8.0599   8.0599   8.1154   8.4000
     9.1908   9.2581   9.3054   9.3054   9.5413   9.8858  10.1755  10.3224
    10.3224  10.5130  10.8323  11.0826  11.6828  11.6828  11.7386  11.7386
    11.8094  11.8141  11.8141  12.1909  12.5636  12.7262  12.7849  13.0861
    13.0861

     occupation numbers 
     1.0000   1.0000   1.0000   1.0000   1.0000   1.0000   1.0000   1.0000
     1.0000   1.0000   1.0000   1.0000   1.0000   1.0000   1.0000   1.0000
     1.0000   1.0000   1.0000   1.0000   1.0000   1.0000   1.0000   1.0000
     1.0000   1.0000   1.0000   1.0000   1.0000   1.0000   1.0000   1.0000
     0.0000   0.0000   0.0000   0.0000   0.0000   0.0000   0.0000   0.0000
     0.0000   0.0000   0.0000   0.0000   0.0000   0.0000   0.0000   0.0000
     0.0000   0.0000   0.0000   0.0000   0.0000   0.0000   0.0000   0.0000
     0.0000   0.0000   0.0000   0.0000   0.0000   0.0000   0.0000   0.0000
     0.0000

          k =-0.0878-0.2633 0.2633 ( 11280 PWs)   bands (ev):

    -5.5185  -4.2876  -3.8476  -3.2700  -3.2700  -2.9860  -2.9860  -2.1878
    -1.2122  -0.7346  -0.7346  -0.3426  -0.3426  -0.0948   0.4147   2.1181
     2.7333   2.7333   3.1753   3.1753   3.2633   3.2633   3.4371   3.9237
     3.9476   4.2453   4.2453   4.4003   4.7209   4.7298   5.0966   5.7814
     7.0289   7.2745   7.2745   7.9517   8.1567   8.1628   8.1628   8.3845
     8.3845   8.6254   8.8998   8.9254   9.1895   9.2678   9.4315   9.4315
     9.5054   9.7871  10.2512  10.7547  10.7547  10.9797  12.2866  12.7240
    12.8875  12.9094  12.9094  13.1885  13.1885  13.5024  13.8858  14.0953
    14.2237

     occupation numbers 
     1.0000   1.0000   1.0000   1.0000   1.0000   1.0000   1.0000   1.0000
     1.0000   1.0000   1.0000   1.0000   1.0000   1.0000   1.0000   1.0000
     1.0000   1.0000   1.0000   1.0000   1.0000   1.0000   1.0000   1.0000
     1.0000   1.0000   1.0000   1.0000   1.0000   1.0000   1.0000   1.0000
     0.0000   0.0000   0.0000   0.0000   0.0000   0.0000   0.0000   0.0000
     0.0000   0.0000   0.0000   0.0000   0.0000   0.0000   0.0000   0.0000
     0.0000   0.0000   0.0000   0.0000   0.0000   0.0000   0.0000   0.0000
     0.0000   0.0000   0.0000   0.0000   0.0000   0.0000   0.0000   0.0000
     0.0000

          k = 0.0000-0.1755 0.1755 ( 11233 PWs)   bands (ev):

    -5.7011  -3.8367  -3.8367  -3.4237  -3.4237  -2.6366  -2.6366  -1.8404
    -1.6229  -0.8285  -0.8285  -0.7897  -0.7897  -0.3780  -0.3780   2.5295
     3.0293   3.0293   3.1153   3.1153   3.2911   3.8791   3.8791   4.5528
     4.5528   4.5604   4.5604   4.6790   4.6790   4.9296   5.4685   5.9177
     6.8584   6.9700   6.9700   7.3777   7.3777   7.8389   7.8389   7.8515
     8.2107   8.2107   8.6737   8.7736   8.7767   9.1705   9.1705   9.2465
     9.2465   9.6465   9.6465   9.9323   9.9323  10.0813  13.1095  13.5700
    13.5921  13.5921  14.0373  14.0373  14.1720  14.1720  14.4183  14.6133
    14.6135

     occupation numbers 
     1.0000   1.0000   1.0000   1.0000   1.0000   1.0000   1.0000   1.0000
     1.0000   1.0000   1.0000   1.0000   1.0000   1.0000   1.0000   1.0000
     1.0000   1.0000   1.0000   1.0000   1.0000   1.0000   1.0000   1.0000
     1.0000   1.0000   1.0000   1.0000   1.0000   1.0000   1.0000   1.0000
     0.0000   0.0000   0.0000   0.0000   0.0000   0.0000   0.0000   0.0000
     0.0000   0.0000   0.0000   0.0000   0.0000   0.0000   0.0000   0.0000
     0.0000   0.0000   0.0000   0.0000   0.0000   0.0000   0.0000   0.0000
     0.0000   0.0000   0.0000   0.0000   0.0000   0.0000   0.0000   0.0000
     0.0000

          k = 0.3510 0.0000 0.0000 ( 11266 PWs)   bands (ev):

    -5.5671  -3.7080  -3.7080  -3.7080  -3.7080  -3.4854  -1.6951  -1.6951
    -1.6951  -1.6951  -0.3190  -0.3190  -0.3190  -0.3190   0.2648   2.6397
     2.6397   2.6397   2.6397   3.4258   3.4258   3.5580   3.5580   3.5580
     3.5580   4.6259   4.7365   4.7365   4.7365   4.7365   5.1935   5.1935
     6.6331   7.5602   7.9694   7.9694   7.9694   7.9694   7.9953   8.2908
     8.2908   8.2908   8.2908   9.5906   9.5906   9.5906   9.5906   9.6514
     9.6514   9.8461   9.8461   9.8461   9.8461  10.1889  12.4723  13.7314
    13.7314  13.7314  13.7314  13.8067  13.8068  13.8068  13.8068  13.9157
    13.9157

     occupation numbers 
     1.0000   1.0000   1.0000   1.0000   1.0000   1.0000   1.0000   1.0000
     1.0000   1.0000   1.0000   1.0000   1.0000   1.0000   1.0000   1.0000
     1.0000   1.0000   1.0000   1.0000   1.0000   1.0000   1.0000   1.0000
     1.0000   1.0000   1.0000   1.0000   1.0000   1.0000   1.0000   1.0000
     0.0000   0.0000   0.0000   0.0000   0.0000   0.0000   0.0000   0.0000
     0.0000   0.0000   0.0000   0.0000   0.0000   0.0000   0.0000   0.0000
     0.0000   0.0000   0.0000   0.0000   0.0000   0.0000   0.0000   0.0000
     0.0000   0.0000   0.0000   0.0000   0.0000   0.0000   0.0000   0.0000
     0.0000

          k = 0.4388 0.0878-0.0878 ( 11264 PWs)   bands (ev):

    -5.3846  -4.1599  -3.8242  -3.7240  -3.7240  -3.3678  -2.0881  -2.0881
    -1.2421  -1.2421  -0.4513  -0.0500  -0.0500   0.4602   0.7599   2.2115
     2.2115   2.7265   2.8114   2.8114   3.1028   3.1028   3.4048   3.5851
     3.5891   3.8052   4.4469   4.5282   4.5282   4.9201   4.9612   5.0026
     6.8880   7.9546   8.0402   8.1277   8.1277   8.1837   8.4441   8.6624
     8.6624   9.0400   9.0400   9.3452   9.3452   9.6948   9.7264   9.7703
    10.0875  10.3265  10.5335  10.5994  10.7004  10.7004  12.4011  12.4011
    12.4428  12.4428  12.5566  12.9760  13.0648  13.1081  13.1425  13.5086
    13.5086

     occupation numbers 
     1.0000   1.0000   1.0000   1.0000   1.0000   1.0000   1.0000   1.0000
     1.0000   1.0000   1.0000   1.0000   1.0000   1.0000   1.0000   1.0000
     1.0000   1.0000   1.0000   1.0000   1.0000   1.0000   1.0000   1.0000
     1.0000   1.0000   1.0000   1.0000   1.0000   1.0000   1.0000   1.0000
     0.0000   0.0000   0.0000   0.0000   0.0000   0.0000   0.0000   0.0000
     0.0000   0.0000   0.0000   0.0000   0.0000   0.0000   0.0000   0.0000
     0.0000   0.0000   0.0000   0.0000   0.0000   0.0000   0.0000   0.0000
     0.0000   0.0000   0.0000   0.0000   0.0000   0.0000   0.0000   0.0000
     0.0000

          k =-0.1755-0.5266 0.5266 ( 11245 PWs)   bands (ev):

    -5.1073  -4.6091  -4.0771  -3.6620  -3.6620  -2.9756  -2.4391  -2.4391
    -0.8987  -0.8987  -0.5960   0.1896   0.1896   1.0617   1.3962   2.0111
     2.0111   2.0691   2.7228   2.7228   2.7719   3.0871   3.0871   3.3644
     3.7126   3.8170   4.0915   4.0915   4.1302   4.6905   4.7541   5.2182
     7.3532   7.8383   8.1257   8.3783   8.3783   8.6327   8.8460   8.8460
     8.8869   9.5116   9.5116   9.6002   9.6413   9.8185  10.2540  10.2540
    10.4077  10.7237  10.9598  10.9598  11.1924  11.1924  11.3841  11.4240
    11.8609  11.8609  11.8875  12.1882  12.1903  12.4668  12.8642  13.3315
    13.3374

     occupation numbers 
     1.0000   1.0000   1.0000   1.0000   1.0000   1.0000   1.0000   1.0000
     1.0000   1.0000   1.0000   1.0000   1.0000   1.0000   1.0000   1.0000
     1.0000   1.0000   1.0000   1.0000   1.0000   1.0000   1.0000   1.0000
     1.0000   1.0000   1.0000   1.0000   1.0000   1.0000   1.0000   1.0000
     0.0000   0.0000   0.0000   0.0000   0.0000   0.0000   0.0000   0.0000
     0.0000   0.0000   0.0000   0.0000   0.0000   0.0000   0.0000   0.0000
     0.0000   0.0000   0.0000   0.0000   0.0000   0.0000   0.0000   0.0000
     0.0000   0.0000   0.0000   0.0000   0.0000   0.0000   0.0000   0.0000
     0.0000

          k =-0.0878-0.4388 0.4388 ( 11251 PWs)   bands (ev):

    -4.9983  -4.7431  -4.2393  -3.5183  -3.5183  -2.7512  -2.7512  -2.5563
    -0.8471  -0.7437  -0.7437   0.2555   0.2555   1.0247   1.7284   1.7335
     2.1530   2.1530   2.3906   2.5731   2.5731   3.4520   3.4520   3.6302
     3.6302   3.6336   3.8391   3.9536   4.1066   4.4571   4.5228   5.4782
     7.4941   7.8398   8.2322   8.4364   8.4364   8.7047   8.7047   8.8315
     9.3924   9.6004   9.6456   9.6456   9.6861   9.9857   9.9857  10.0249
    10.5108  10.5167  10.5167  10.6734  10.8786  11.2502  11.3717  11.6823
    11.7113  11.7113  12.2206  12.4289  12.7042  12.9829  12.9829  13.0001
    13.0001

     occupation numbers 
     1.0000   1.0000   1.0000   1.0000   1.0000   1.0000   1.0000   1.0000
     1.0000   1.0000   1.0000   1.0000   1.0000   1.0000   1.0000   1.0000
     1.0000   1.0000   1.0000   1.0000   1.0000   1.0000   1.0000   1.0000
     1.0000   1.0000   1.0000   1.0000   1.0000   1.0000   1.0000   1.0000
     0.0000   0.0000   0.0000   0.0000   0.0000   0.0000   0.0000   0.0000
     0.0000   0.0000   0.0000   0.0000   0.0000   0.0000   0.0000   0.0000
     0.0000   0.0000   0.0000   0.0000   0.0000   0.0000   0.0000   0.0000
     0.0000   0.0000   0.0000   0.0000   0.0000   0.0000   0.0000   0.0000
     0.0000

          k = 0.0000-0.3510 0.3510 ( 11274 PWs)   bands (ev):

    -5.3048  -4.3093  -4.3093  -3.2922  -3.2922  -3.0282  -3.0282  -2.1835
    -1.1866  -0.7296  -0.7296   0.0495   0.0495   0.7500   0.7500   1.7788
     2.5913   2.5913   2.6911   2.6911   3.2830   3.2830   3.3033   3.6028
     3.8684   3.8684   4.1703   4.1703   4.3905   4.4252   4.4252   5.6906
     7.2175   7.9383   7.9383   8.2086   8.2086   8.6430   8.6430   8.9435
     9.0031   9.0031   9.0878   9.1312   9.1312   9.3129   9.5714   9.5714
    10.0961  10.4236  10.4236  11.4053  11.4242  11.4242  11.6656  11.6656
    11.8278  11.8278  12.3470  13.0524  13.0525  13.2857  13.2857  13.3577
    13.8674

     occupation numbers 
     1.0000   1.0000   1.0000   1.0000   1.0000   1.0000   1.0000   1.0000
     1.0000   1.0000   1.0000   1.0000   1.0000   1.0000   1.0000   1.0000
     1.0000   1.0000   1.0000   1.0000   1.0000   1.0000   1.0000   1.0000
     1.0000   1.0000   1.0000   1.0000   1.0000   1.0000   1.0000   1.0000
     0.0000   0.0000   0.0000   0.0000   0.0000   0.0000   0.0000   0.0000
     0.0000   0.0000   0.0000   0.0000   0.0000   0.0000   0.0000   0.0000
     0.0000   0.0000   0.0000   0.0000   0.0000   0.0000   0.0000   0.0000
     0.0000   0.0000   0.0000   0.0000   0.0000   0.0000   0.0000   0.0000
     0.0000

          k = 0.5266 0.0000 0.0000 ( 11254 PWs)   bands (ev):

    -5.2345  -4.1879  -3.7979  -3.7979  -3.7979  -3.7979  -1.6388  -1.6388
    -1.6388  -1.6388   0.2177   0.2177   0.2177   0.2177   1.3522   2.3339
     2.3339   2.3339   2.3339   2.7307   2.7307   2.7307   2.7307   3.5615
     3.7234   3.7234   4.6316   4.6316   4.6938   4.6938   4.6938   4.6938
     6.8180   7.5449   8.2593   8.4187   8.4187   8.4187   8.4187   9.1519
     9.1519   9.1519   9.1519   9.9887  10.3606  10.3606  10.3606  10.3606
    10.3794  10.3794  10.3794  10.3794  10.6158  10.6158  12.1474  12.1474
    12.1474  12.1474  12.7266  12.7752  12.7752  12.8099  12.8099  12.8099
    12.8099

     occupation numbers 
     1.0000   1.0000   1.0000   1.0000   1.0000   1.0000   1.0000   1.0000
     1.0000   1.0000   1.0000   1.0000   1.0000   1.0000   1.0000   1.0000
     1.0000   1.0000   1.0000   1.0000   1.0000   1.0000   1.0000   1.0000
     1.0000   1.0000   1.0000   1.0000   1.0000   1.0000   1.0000   1.0000
     0.0000   0.0000   0.0000   0.0000   0.0000   0.0000   0.0000   0.0000
     0.0000   0.0000   0.0000   0.0000   0.0000   0.0000   0.0000   0.0000
     0.0000   0.0000   0.0000   0.0000   0.0000   0.0000   0.0000   0.0000
     0.0000   0.0000   0.0000   0.0000   0.0000   0.0000   0.0000   0.0000
     0.0000

          k =-0.0878-0.6143 0.6143 ( 11248 PWs)   bands (ev):

    -4.9884  -4.4662  -4.2561  -3.7893  -3.7893  -3.3726  -2.0253  -2.0253
    -1.2328  -1.2328  -0.0696   0.4302   0.4302   1.0283   1.8080   2.0140
     2.0140   2.0698   2.4483   2.4483   2.5973   2.5973   2.8332   2.8783
     3.8152   3.9362   4.3572   4.3831   4.3889   4.4842   4.4842   4.9755
     7.1493   7.5193   8.1079   8.6803   8.7235   8.7235   8.8024   9.3499
     9.3499   9.6612   9.9227   9.9227  10.1453  10.2734  10.2734  10.3530
    10.8951  10.9583  10.9583  11.0571  11.1628  11.3384  11.3462  11.3462
    11.6214  11.6214  11.9392  11.9569  11.9569  11.9660  12.0822  12.3271
    12.7336

     occupation numbers 
     1.0000   1.0000   1.0000   1.0000   1.0000   1.0000   1.0000   1.0000
     1.0000   1.0000   1.0000   1.0000   1.0000   1.0000   1.0000   1.0000
     1.0000   1.0000   1.0000   1.0000   1.0000   1.0000   1.0000   1.0000
     1.0000   1.0000   1.0000   1.0000   1.0000   1.0000   1.0000   1.0000
     0.0000   0.0000   0.0000   0.0000   0.0000   0.0000   0.0000   0.0000
     0.0000   0.0000   0.0000   0.0000   0.0000   0.0000   0.0000   0.0000
     0.0000   0.0000   0.0000   0.0000   0.0000   0.0000   0.0000   0.0000
     0.0000   0.0000   0.0000   0.0000   0.0000   0.0000   0.0000   0.0000
     0.0000

          k = 0.0000-0.5266 0.5266 ( 11202 PWs)   bands (ev):

    -4.6658  -4.6524  -4.6524  -3.6961  -3.6961  -2.9214  -2.3981  -2.3981
    -0.9295  -0.9295  -0.4638   0.4546   0.4546   1.7366   1.8039   1.9375
     1.9375   1.9474   1.9474   2.4124   2.4124   2.9851   2.9851   3.2558
     4.0062   4.0062   4.0409   4.0409   4.0871   4.2108   4.2108   5.2567
     7.7144   7.7144   7.7733   8.8922   9.3164   9.3164   9.4833   9.4833
     9.5321   9.5321   9.6153   9.6153   9.7665   9.7665   9.7747  10.0731
    10.3057  10.3057  10.8312  10.8312  11.2764  11.2764  11.5935  11.5935
    11.5940  11.9324  11.9925  11.9925  12.0994  12.1614  12.4759  12.4759
    12.9045

     occupation numbers 
     1.0000   1.0000   1.0000   1.0000   1.0000   1.0000   1.0000   1.0000
     1.0000   1.0000   1.0000   1.0000   1.0000   1.0000   1.0000   1.0000
     1.0000   1.0000   1.0000   1.0000   1.0000   1.0000   1.0000   1.0000
     1.0000   1.0000   1.0000   1.0000   1.0000   1.0000   1.0000   1.0000
     0.0000   0.0000   0.0000   0.0000   0.0000   0.0000   0.0000   0.0000
     0.0000   0.0000   0.0000   0.0000   0.0000   0.0000   0.0000   0.0000
     0.0000   0.0000   0.0000   0.0000   0.0000   0.0000   0.0000   0.0000
     0.0000   0.0000   0.0000   0.0000   0.0000   0.0000   0.0000   0.0000
     0.0000

          k =-0.7021 0.0000 0.0000 ( 11278 PWs)   bands (ev):

    -4.7732  -4.7732  -3.8322  -3.8322  -3.8322  -3.8322  -1.6143  -1.6143
    -1.6143  -1.6143   0.5378   0.5378   0.5378   0.5378   2.2182   2.2182
     2.2182   2.2182   2.3100   2.3100   2.3100   2.3100   2.4585   2.4585
     4.1304   4.1304   4.1304   4.1304   4.6768   4.6768   4.6768   4.6768
     7.1330   7.1330   8.4185   8.4185   8.4185   8.4185   9.1191   9.1191
    10.2571  10.2571  10.2571  10.2571  10.7274  10.7274  10.7274  10.7274
    10.9093  10.9093  10.9093  10.9093  11.0681  11.0681  11.0681  11.0681
    11.6697  11.6697  11.6697  11.6697  12.0169  12.0169  12.0169  12.0169
    12.4461

     occupation numbers 
     1.0000   1.0000   1.0000   1.0000   1.0000   1.0000   1.0000   1.0000
     1.0000   1.0000   1.0000   1.0000   1.0000   1.0000   1.0000   1.0000
     1.0000   1.0000   1.0000   1.0000   1.0000   1.0000   1.0000   1.0000
     1.0000   1.0000   1.0000   1.0000   1.0000   1.0000   1.0000   1.0000
     0.0000   0.0000   0.0000   0.0000   0.0000   0.0000   0.0000   0.0000
     0.0000   0.0000   0.0000   0.0000   0.0000   0.0000   0.0000   0.0000
     0.0000   0.0000   0.0000   0.0000   0.0000   0.0000   0.0000   0.0000
     0.0000   0.0000   0.0000   0.0000   0.0000   0.0000   0.0000   0.0000
     0.0000

          k = 0.3510 0.1755 0.0000 ( 11264 PWs)   bands (ev):

    -5.5013  -4.0457  -4.0457  -3.4361  -3.3428  -3.3428  -2.5281  -1.9273
    -1.4566  -0.8238  -0.6307  -0.6307   0.1587   0.1587   0.2121   2.1132
     2.5853   2.8688   3.1045   3.1045   3.1863   3.2182   3.3666   3.9560
     3.9560   4.0864   4.3467   4.3467   4.7344   4.7344   4.9331   5.5618
     7.0149   7.3266   7.8553   7.8802   8.2198   8.3191   8.3191   8.3530
     8.4994   8.4994   8.9308   9.1835   9.2540   9.2540   9.3584   9.3584
     9.5270  10.0564  10.0564  10.7097  10.7097  10.7750  12.5589  12.6071
    12.6071  12.6562  13.0904  13.4765  13.4765  13.6037  13.7788  13.9037
    13.9306

     occupation numbers 
     1.0000   1.0000   1.0000   1.0000   1.0000   1.0000   1.0000   1.0000
     1.0000   1.0000   1.0000   1.0000   1.0000   1.0000   1.0000   1.0000
     1.0000   1.0000   1.0000   1.0000   1.0000   1.0000   1.0000   1.0000
     1.0000   1.0000   1.0000   1.0000   1.0000   1.0000   1.0000   1.0000
     0.0000   0.0000   0.0000   0.0000   0.0000   0.0000   0.0000   0.0000
     0.0000   0.0000   0.0000   0.0000   0.0000   0.0000   0.0000   0.0000
     0.0000   0.0000   0.0000   0.0000   0.0000   0.0000   0.0000   0.0000
     0.0000   0.0000   0.0000   0.0000   0.0000   0.0000   0.0000   0.0000
     0.0000

          k =-0.2633-0.4388 0.6143 ( 11256 PWs)   bands (ev):

    -5.2552  -4.5055  -4.0253  -3.7199  -3.2316  -3.0159  -2.8283  -2.2642
    -1.0973  -0.6903  -0.4819  -0.4524   0.4656   0.5784   1.0654   1.8526
     2.3309   2.4004   2.6211   3.0335   3.0962   3.1340   3.4177   3.4627
     3.5916   3.9271   4.0152   4.0706   4.3377   4.5230   4.9342   5.4040
     7.4622   7.5500   8.2160   8.2325   8.3159   8.4392   8.5159   8.6417
     8.9255   9.1755   9.2417   9.2716   9.2934   9.7347   9.9009  10.1397
    10.1457  10.1735  10.9074  11.1254  11.1772  11.4035  11.7067  11.8042
    11.8252  11.9010  12.0286  12.4554  12.7060  12.9417  13.0692  13.5137
    13.5956

     occupation numbers 
     1.0000   1.0000   1.0000   1.0000   1.0000   1.0000   1.0000   1.0000
     1.0000   1.0000   1.0000   1.0000   1.0000   1.0000   1.0000   1.0000
     1.0000   1.0000   1.0000   1.0000   1.0000   1.0000   1.0000   1.0000
     1.0000   1.0000   1.0000   1.0000   1.0000   1.0000   1.0000   1.0000
     0.0000   0.0000   0.0000   0.0000   0.0000   0.0000   0.0000   0.0000
     0.0000   0.0000   0.0000   0.0000   0.0000   0.0000   0.0000   0.0000
     0.0000   0.0000   0.0000   0.0000   0.0000   0.0000   0.0000   0.0000
     0.0000   0.0000   0.0000   0.0000   0.0000   0.0000   0.0000   0.0000
     0.0000

          k =-0.1755-0.3510 0.5266 ( 11272 PWs)   bands (ev):

    -4.9189  -4.9189  -3.9169  -3.9169  -3.0622  -3.0622  -2.6518  -2.6518
    -0.8125  -0.8125  -0.3570  -0.3570   0.6626   0.6626   1.9405   1.9405
     2.0815   2.0815   2.3178   2.3178   3.0956   3.0956   3.4767   3.4767
     3.6908   3.6908   3.9317   3.9317   4.2537   4.2537   5.1716   5.1716
     7.8572   7.8572   7.9081   7.9081   8.5509   8.5509   8.5672   8.5672
     9.2375   9.2375   9.7805   9.7805  10.1318  10.1318  10.1697  10.1697
    10.6276  10.6276  10.7537  10.7537  11.1296  11.1296  11.3371  11.3371
    11.6249  11.6249  12.0017  12.0017  12.8351  12.8351  13.0507  13.0507
    13.1421

     occupation numbers 
     1.0000   1.0000   1.0000   1.0000   1.0000   1.0000   1.0000   1.0000
     1.0000   1.0000   1.0000   1.0000   1.0000   1.0000   1.0000   1.0000
     1.0000   1.0000   1.0000   1.0000   1.0000   1.0000   1.0000   1.0000
     1.0000   1.0000   1.0000   1.0000   1.0000   1.0000   1.0000   1.0000
     0.0000   0.0000   0.0000   0.0000   0.0000   0.0000   0.0000   0.0000
     0.0000   0.0000   0.0000   0.0000   0.0000   0.0000   0.0000   0.0000
     0.0000   0.0000   0.0000   0.0000   0.0000   0.0000   0.0000   0.0000
     0.0000   0.0000   0.0000   0.0000   0.0000   0.0000   0.0000   0.0000
     0.0000

          k =-0.1755-0.5266 0.7021 ( 11255 PWs)   bands (ev):

    -5.1706  -4.1857  -4.1857  -4.1315  -3.3346  -3.3346  -2.3696  -2.0407
    -1.2604  -0.9119  -0.2502  -0.2502   0.7655   0.7655   1.2267   1.8916
     2.1699   2.3514   2.3514   2.7152   2.9599   3.1794   3.1909   3.1909
     3.4693   3.7597   4.2202   4.2202   4.3686   4.7676   4.7676   4.9240
     7.2046   7.9193   8.3132   8.4438   8.4438   8.5202   8.8448   8.8448
     9.0811   9.3507   9.3507   9.3652   9.8328  10.0616  10.0616  10.1887
    10.5182  10.5471  10.6823  10.6823  11.1294  11.5865  11.5865  11.6111
    11.6111  12.0528  12.0738  12.3371  12.3827  12.3827  12.7383  13.0052
    13.2780

     occupation numbers 
     1.0000   1.0000   1.0000   1.0000   1.0000   1.0000   1.0000   1.0000
     1.0000   1.0000   1.0000   1.0000   1.0000   1.0000   1.0000   1.0000
     1.0000   1.0000   1.0000   1.0000   1.0000   1.0000   1.0000   1.0000
     1.0000   1.0000   1.0000   1.0000   1.0000   1.0000   1.0000   1.0000
     0.0000   0.0000   0.0000   0.0000   0.0000   0.0000   0.0000   0.0000
     0.0000   0.0000   0.0000   0.0000   0.0000   0.0000   0.0000   0.0000
     0.0000   0.0000   0.0000   0.0000   0.0000   0.0000   0.0000   0.0000
     0.0000   0.0000   0.0000   0.0000   0.0000   0.0000   0.0000   0.0000
     0.0000

          k =-0.0878-0.4388 0.6143 ( 11244 PWs)   bands (ev):

    -4.8639  -4.6178  -4.3497  -4.1208  -3.2354  -2.8998  -2.6246  -2.4190
    -0.9121  -0.6877  -0.5170  -0.1338   0.9621   1.4655   1.6656   1.8249
     1.8484   2.0064   2.1495   2.3112   2.9348   3.0705   3.2173   3.4036
     3.4506   3.7632   3.9024   3.9559   4.0980   4.3284   4.7455   5.0329
     7.7518   8.0966   8.1230   8.5766   8.7218   8.9739   9.1741   9.2780
     9.3154   9.4462   9.6573   9.7630   9.8044   9.8716  10.2463  10.4287
    10.5788  10.6369  10.8153  10.8802  10.9333  10.9613  11.0222  11.0529
    11.6030  11.7654  11.9445  12.1299  12.3201  12.6125  12.8549  12.9495
    13.0332

     occupation numbers 
     1.0000   1.0000   1.0000   1.0000   1.0000   1.0000   1.0000   1.0000
     1.0000   1.0000   1.0000   1.0000   1.0000   1.0000   1.0000   1.0000
     1.0000   1.0000   1.0000   1.0000   1.0000   1.0000   1.0000   1.0000
     1.0000   1.0000   1.0000   1.0000   1.0000   1.0000   1.0000   1.0000
     0.0000   0.0000   0.0000   0.0000   0.0000   0.0000   0.0000   0.0000
     0.0000   0.0000   0.0000   0.0000   0.0000   0.0000   0.0000   0.0000
     0.0000   0.0000   0.0000   0.0000   0.0000   0.0000   0.0000   0.0000
     0.0000   0.0000   0.0000   0.0000   0.0000   0.0000   0.0000   0.0000
     0.0000

          k = 0.0000-0.3510 0.5266 ( 11244 PWs)   bands (ev):

    -4.9799  -4.4747  -4.4747  -3.9649  -3.0665  -2.8392  -2.8392  -2.4755
    -0.8769  -0.6335  -0.6335  -0.2149   0.8957   1.3664   1.3664   1.6926
     2.0849   2.0849   2.2041   2.5060   2.9432   3.3057   3.5549   3.5549
     3.6260   3.6730   3.6730   3.8224   3.8720   4.5218   4.5218   5.2718
     7.7858   8.1272   8.2820   8.2820   8.7944   8.9066   8.9066   9.1415
     9.2418   9.2619   9.7139   9.8155   9.8155   9.8572   9.8572  10.2648
    10.2677  10.4850  10.4850  10.7723  10.9673  11.0203  11.0203  11.3327
    11.9598  11.9598  12.1245  12.6326  12.6423  12.7312  12.9437  12.9438
    13.0631

     occupation numbers 
     1.0000   1.0000   1.0000   1.0000   1.0000   1.0000   1.0000   1.0000
     1.0000   1.0000   1.0000   1.0000   1.0000   1.0000   1.0000   1.0000
     1.0000   1.0000   1.0000   1.0000   1.0000   1.0000   1.0000   1.0000
     1.0000   1.0000   1.0000   1.0000   1.0000   1.0000   1.0000   1.0000
     0.0000   0.0000   0.0000   0.0000   0.0000   0.0000   0.0000   0.0000
     0.0000   0.0000   0.0000   0.0000   0.0000   0.0000   0.0000   0.0000
     0.0000   0.0000   0.0000   0.0000   0.0000   0.0000   0.0000   0.0000
     0.0000   0.0000   0.0000   0.0000   0.0000   0.0000   0.0000   0.0000
     0.0000

          k =-0.7021 0.1755 0.0000 ( 11254 PWs)   bands (ev):

    -4.7122  -4.7122  -4.2345  -4.2345  -3.3400  -3.3400  -2.1946  -2.1946
    -1.0654  -1.0654  -0.0144  -0.0144   1.1203   1.1203   1.9159   1.9159
     1.9910   1.9910   2.2233   2.2233   2.7518   2.7518   2.7716   2.7716
     3.8689   3.8689   4.1771   4.1771   4.2890   4.2890   4.7741   4.7741
     7.5171   7.5171   8.4013   8.4013   9.0033   9.0033   9.3357   9.3357
     9.5600   9.5600   9.5794   9.5794  10.4144  10.4144  10.6499  10.6499
    10.8546  10.8546  10.9820  10.9820  11.0782  11.0782  11.1786  11.1786
    11.6026  11.6026  11.6028  11.6028  11.7817  11.7817  12.2968  12.2968
    12.9798

     occupation numbers 
     1.0000   1.0000   1.0000   1.0000   1.0000   1.0000   1.0000   1.0000
     1.0000   1.0000   1.0000   1.0000   1.0000   1.0000   1.0000   1.0000
     1.0000   1.0000   1.0000   1.0000   1.0000   1.0000   1.0000   1.0000
     1.0000   1.0000   1.0000   1.0000   1.0000   1.0000   1.0000   1.0000
     0.0000   0.0000   0.0000   0.0000   0.0000   0.0000   0.0000   0.0000
     0.0000   0.0000   0.0000   0.0000   0.0000   0.0000   0.0000   0.0000
     0.0000   0.0000   0.0000   0.0000   0.0000   0.0000   0.0000   0.0000
     0.0000   0.0000   0.0000   0.0000   0.0000   0.0000   0.0000   0.0000
     0.0000

          k =-0.7021 0.3510 0.0000 ( 11180 PWs)   bands (ev):

    -4.5310  -4.5310  -4.5310  -4.5310  -2.7826  -2.7826  -2.7825  -2.7825
    -0.5409  -0.5409  -0.5409  -0.5409   1.7089   1.7089   1.7089   1.7089
     1.8488   1.8488   1.8488   1.8488   3.3271   3.3271   3.3271   3.3271
     3.4537   3.4537   3.4537   3.4537   4.5790   4.5790   4.5790   4.5790
     8.4246   8.4246   8.4246   8.4246   8.8475   8.8475   8.8475   8.8475
     9.8034   9.8034   9.8034   9.8034  10.1899  10.1899  10.1899  10.1899
    10.4975  10.4976  10.4976  10.4976  11.1481  11.1481  11.1481  11.1481
    11.4218  11.4218  11.4218  11.4218  12.9455  12.9455  12.9455  12.9455
    13.6968

     occupation numbers 
     1.0000   1.0000   1.0000   1.0000   1.0000   1.0000   1.0000   1.0000
     1.0000   1.0000   1.0000   1.0000   1.0000   1.0000   1.0000   1.0000
     1.0000   1.0000   1.0000   1.0000   1.0000   1.0000   1.0000   1.0000
     1.0000   1.0000   1.0000   1.0000   1.0000   1.0000   1.0000   1.0000
     0.0000   0.0000   0.0000   0.0000   0.0000   0.0000   0.0000   0.0000
     0.0000   0.0000   0.0000   0.0000   0.0000   0.0000   0.0000   0.0000
     0.0000   0.0000   0.0000   0.0000   0.0000   0.0000   0.0000   0.0000
     0.0000   0.0000   0.0000   0.0000   0.0000   0.0000   0.0000   0.0000
     0.0000

     highest occupied, lowest unoccupied level (ev):     5.9812    6.6001

!    total energy              =    -182.72135440 Ry
     Harris-Foulkes estimate   =    -182.72135440 Ry
     estimated scf accuracy    <          1.4E-11 Ry

     The total energy is the sum of the following terms:

     one-electron contribution =      40.01043775 Ry
     hartree contribution      =       8.95391204 Ry
     xc contribution           =     -98.26328368 Ry
     ewald contribution        =    -133.42242051 Ry

     convergence has been achieved in   9 iterations

     Forces acting on atoms (cartesian axes, Ry/au):

     atom    1 type  1   force =     0.00000000    0.00000000   -0.00000000
     atom    2 type  1   force =    -0.00000001   -0.00000001   -0.00000001
     atom    3 type  1   force =     0.00000000   -0.00000000   -0.00000023
     atom    4 type  1   force =     0.00000001    0.00000001   -0.00000001
     atom    5 type  1   force =    -0.00000000   -0.00000023    0.00000000
     atom    6 type  1   force =     0.00000001   -0.00000001    0.00000001
     atom    7 type  1   force =     0.00000023    0.00000000    0.00000000
     atom    8 type  1   force =     0.00000002   -0.00000002   -0.00000002
     atom    9 type  1   force =    -0.00000023   -0.00000000    0.00000000
     atom   10 type  1   force =    -0.00000001    0.00000001    0.00000001
     atom   11 type  1   force =    -0.00000000    0.00000023    0.00000000
     atom   12 type  1   force =    -0.00000002    0.00000002   -0.00000002
     atom   13 type  1   force =    -0.00000000    0.00000000    0.00000023
     atom   14 type  1   force =    -0.00000002   -0.00000002    0.00000002
     atom   15 type  1   force =    -0.00000000    0.00000000   -0.00000000
     atom   16 type  1   force =     0.00000002    0.00000002    0.00000002
     The non-local contrib.  to forces
     atom    1 type  1   force =     0.00000000   -0.00000000    0.00000000
     atom    2 type  1   force =    -0.00000008   -0.00000008   -0.00000008
     atom    3 type  1   force =    -0.00000000    0.00000000    0.00000020
     atom    4 type  1   force =     0.00000008    0.00000008   -0.00000008
     atom    5 type  1   force =    -0.00000000    0.00000020    0.00000000
     atom    6 type  1   force =     0.00000008   -0.00000008    0.00000008
     atom    7 type  1   force =    -0.00000020   -0.00000000    0.00000000
     atom    8 type  1   force =     0.00000002   -0.00000002   -0.00000002
     atom    9 type  1   force =     0.00000020   -0.00000000    0.00000000
     atom   10 type  1   force =    -0.00000008    0.00000008    0.00000008
     atom   11 type  1   force =    -0.00000000   -0.00000020    0.00000000
     atom   12 type  1   force =    -0.00000002    0.00000002   -0.00000002
     atom   13 type  1   force =    -0.00000000    0.00000000   -0.00000020
     atom   14 type  1   force =    -0.00000002   -0.00000002    0.00000002
     atom   15 type  1   force =    -0.00000000   -0.00000000    0.00000000
     atom   16 type  1   force =     0.00000002    0.00000002    0.00000002
     The ionic contribution  to forces
     atom    1 type  1   force =    -0.00000000   -0.00000000    0.00000000
     atom    2 type  1   force =    -0.00000003   -0.00000003   -0.00000003
     atom    3 type  1   force =     0.00000000    0.00000000   -0.00000015
     atom    4 type  1   force =     0.00000003    0.00000003   -0.00000003
     atom    5 type  1   force =     0.00000000   -0.00000015   -0.00000000
     atom    6 type  1   force =     0.00000003   -0.00000003    0.00000003
     atom    7 type  1   force =     0.00000015    0.00000000   -0.00000000
     atom    8 type  1   force =     0.00000003   -0.00000003   -0.00000003
     atom    9 type  1   force =    -0.00000015    0.00000000   -0.00000000
     atom   10 type  1   force =    -0.00000003    0.00000003    0.00000003
     atom   11 type  1   force =     0.00000000    0.00000015   -0.00000000
     atom   12 type  1   force =    -0.00000003    0.00000003   -0.00000003
     atom   13 type  1   force =    -0.00000000   -0.00000000    0.00000015
     atom   14 type  1   force =    -0.00000003   -0.00000003    0.00000003
     atom   15 type  1   force =     0.00000000    0.00000000   -0.00000000
     atom   16 type  1   force =     0.00000003    0.00000003    0.00000003
     The local contribution  to forces
     atom    1 type  1   force =    -0.00000000    0.00000000    0.00000000
     atom    2 type  1   force =    -0.00000062   -0.00000062   -0.00000062
     atom    3 type  1   force =     0.00000000    0.00000000   -0.00000063
     atom    4 type  1   force =     0.00000062    0.00000062   -0.00000062
     atom    5 type  1   force =     0.00000000   -0.00000063    0.00000000
     atom    6 type  1   force =     0.00000062   -0.00000062    0.00000062
     atom    7 type  1   force =     0.00000063    0.00000000    0.00000000
     atom    8 type  1   force =     0.00000048   -0.00000048   -0.00000048
     atom    9 type  1   force =    -0.00000063    0.00000000   -0.00000000
     atom   10 type  1   force =    -0.00000062    0.00000062    0.00000062
     atom   11 type  1   force =    -0.00000000    0.00000063    0.00000000
     atom   12 type  1   force =    -0.00000048    0.00000048   -0.00000048
     atom   13 type  1   force =     0.00000000    0.00000000    0.00000063
     atom   14 type  1   force =    -0.00000048   -0.00000048    0.00000048
     atom   15 type  1   force =    -0.00000000   -0.00000000    0.00000000
     atom   16 type  1   force =     0.00000048    0.00000048    0.00000048
     The core correction contribution to forces
     atom    1 type  1   force =    -0.00000000   -0.00000000    0.00000000
     atom    2 type  1   force =     0.00000000    0.00000000    0.00000000
     atom    3 type  1   force =    -0.00000000   -0.00000000   -0.00000003
     atom    4 type  1   force =    -0.00000000   -0.00000000    0.00000000
     atom    5 type  1   force =    -0.00000000   -0.00000003   -0.00000000
     atom    6 type  1   force =    -0.00000000    0.00000000   -0.00000000
     atom    7 type  1   force =     0.00000003    0.00000000   -0.00000000
     atom    8 type  1   force =     0.00000000   -0.00000000   -0.00000000
     atom    9 type  1   force =    -0.00000003   -0.00000000   -0.00000000
     atom   10 type  1   force =     0.00000000   -0.00000000   -0.00000000
     atom   11 type  1   force =     0.00000000    0.00000003    0.00000000
     atom   12 type  1   force =    -0.00000000    0.00000000   -0.00000000
     atom   13 type  1   force =     0.00000000    0.00000000    0.00000003
     atom   14 type  1   force =    -0.00000000   -0.00000000    0.00000000
     atom   15 type  1   force =    -0.00000000    0.00000000    0.00000000
     atom   16 type  1   force =     0.00000000    0.00000000    0.00000000
     The Hubbard contrib.    to forces
     atom    1 type  1   force =     0.00000000    0.00000000    0.00000000
     atom    2 type  1   force =     0.00000000    0.00000000    0.00000000
     atom    3 type  1   force =     0.00000000    0.00000000    0.00000000
     atom    4 type  1   force =     0.00000000    0.00000000    0.00000000
     atom    5 type  1   force =     0.00000000    0.00000000    0.00000000
     atom    6 type  1   force =     0.00000000    0.00000000    0.00000000
     atom    7 type  1   force =     0.00000000    0.00000000    0.00000000
     atom    8 type  1   force =     0.00000000    0.00000000    0.00000000
     atom    9 type  1   force =     0.00000000    0.00000000    0.00000000
     atom   10 type  1   force =     0.00000000    0.00000000    0.00000000
     atom   11 type  1   force =     0.00000000    0.00000000    0.00000000
     atom   12 type  1   force =     0.00000000    0.00000000    0.00000000
     atom   13 type  1   force =     0.00000000    0.00000000    0.00000000
     atom   14 type  1   force =     0.00000000    0.00000000    0.00000000
     atom   15 type  1   force =     0.00000000    0.00000000    0.00000000
     atom   16 type  1   force =     0.00000000    0.00000000    0.00000000
     The SCF correction term to forces
     atom    1 type  1   force =    -0.00000000    0.00000000   -0.00000000
     atom    2 type  1   force =     0.00000072    0.00000072    0.00000072
     atom    3 type  1   force =     0.00000000   -0.00000000    0.00000037
     atom    4 type  1   force =    -0.00000072   -0.00000072    0.00000072
     atom    5 type  1   force =     0.00000000    0.00000037    0.00000000
     atom    6 type  1   force =    -0.00000072    0.00000072   -0.00000072
     atom    7 type  1   force =    -0.00000037    0.00000000   -0.00000000
     atom    8 type  1   force =    -0.00000052    0.00000052    0.00000052
     atom    9 type  1   force =     0.00000037    0.00000000   -0.00000000
     atom   10 type  1   force =     0.00000072   -0.00000072   -0.00000072
     atom   11 type  1   force =     0.00000000   -0.00000037    0.00000000
     atom   12 type  1   force =     0.00000052   -0.00000052    0.00000052
     atom   13 type  1   force =    -0.00000000    0.00000000   -0.00000037
     atom   14 type  1   force =     0.00000052    0.00000052   -0.00000052
     atom   15 type  1   force =     0.00000000    0.00000000    0.00000000
     atom   16 type  1   force =    -0.00000052   -0.00000052   -0.00000052

     Total force =     0.000001     Total SCF correction =     0.000003
     SCF correction compared to forces is large: reduce conv_thr to get better values


     Computing stress (Cartesian axis) and pressure

          total   stress  (Ry/bohr**3)                   (kbar)     P=   -0.08
  -0.00000055  -0.00000000   0.00000000         -0.08     -0.00      0.00
   0.00000000  -0.00000055   0.00000000          0.00     -0.08      0.00
   0.00000000   0.00000000  -0.00000055          0.00      0.00     -0.08

     kinetic stress (kbar)   2143.74      0.00      0.00
                                0.00   2143.74     -0.00
                                0.00     -0.00   2143.74

     local   stress (kbar)     31.33     -0.00     -0.00
                               -0.00     31.33     -0.00
                               -0.00     -0.00     31.33

     nonloc. stress (kbar)   1562.83     -0.00      0.00
                               -0.00   1562.83     -0.00
                                0.00     -0.00   1562.83

     hartree stress (kbar)    198.82     -0.00      0.00
                               -0.00    198.82      0.00
                                0.00      0.00    198.82

     exc-cor stress (kbar)   2886.83      0.00     -0.00
                                0.00   2886.83     -0.00
                               -0.00     -0.00   2886.83

     corecor stress (kbar)  -3860.99     -0.00     -0.00
                               -0.00  -3860.99      0.00
                               -0.00      0.00  -3860.99

     ewald   stress (kbar)  -2962.65      0.00      0.00
                                0.00  -2962.65      0.00
                                0.00      0.00  -2962.65

     hubbard stress (kbar)      0.00      0.00      0.00
                                0.00      0.00      0.00
                                0.00      0.00      0.00

     london  stress (kbar)      0.00      0.00      0.00
                                0.00      0.00      0.00
                                0.00      0.00      0.00

     DFT-D3  stress (kbar)      0.00      0.00      0.00
                                0.00      0.00      0.00
                                0.00      0.00      0.00

     XDM     stress (kbar)      0.00      0.00      0.00
                                0.00      0.00      0.00
                                0.00      0.00      0.00

     dft-nl  stress (kbar)      0.00      0.00      0.00
                                0.00      0.00      0.00
                                0.00      0.00      0.00

     TS-vdW  stress (kbar)      0.00      0.00      0.00
                                0.00      0.00      0.00
                                0.00      0.00      0.00



     Writing output data file si.save/

     init_run     :      6.32s CPU      6.53s WALL (       1 calls)
     electrons    :    211.87s CPU    218.30s WALL (       1 calls)
     forces       :      4.19s CPU      4.28s WALL (       1 calls)
     stress       :     18.84s CPU     18.97s WALL (       1 calls)

     Called by init_run:
     wfcinit      :      5.84s CPU      6.01s WALL (       1 calls)
     wfcinit:atom :      0.05s CPU      0.04s WALL (      29 calls)
     wfcinit:wfcr :      5.64s CPU      5.82s WALL (      29 calls)
     potinit      :      0.06s CPU      0.06s WALL (       1 calls)
     hinit0       :      0.22s CPU      0.23s WALL (       1 calls)

     Called by electrons:
     c_bands      :    188.53s CPU    193.81s WALL (      10 calls)
     sum_band     :     22.36s CPU     23.48s WALL (      10 calls)
     v_of_rho     :      0.34s CPU      0.35s WALL (      10 calls)
     v_h          :      0.02s CPU      0.02s WALL (      10 calls)
     v_xc         :      0.39s CPU      0.40s WALL (      12 calls)
     newd         :      0.65s CPU      0.70s WALL (      10 calls)
     mix_rho      :      0.06s CPU      0.06s WALL (      10 calls)

     Called by c_bands:
     init_us_2    :      2.62s CPU      2.66s WALL (     667 calls)
     cegterg      :    178.75s CPU    183.99s WALL (     290 calls)

     Called by sum_band:
     sum_band:bec :      0.14s CPU      0.15s WALL (     290 calls)
     addusdens    :      0.79s CPU      0.80s WALL (      10 calls)

     Called by *egterg:
     h_psi        :    100.81s CPU    105.56s WALL (    1257 calls)
     s_psi        :     21.34s CPU     21.42s WALL (    1257 calls)
     g_psi        :      0.56s CPU      0.56s WALL (     938 calls)
     cdiaghg      :     26.91s CPU     26.96s WALL (    1199 calls)
     cegterg:over :     13.90s CPU     14.18s WALL (     938 calls)
     cegterg:upda :      9.87s CPU      9.92s WALL (     938 calls)
     cegterg:last :      4.54s CPU      4.55s WALL (     290 calls)

     Called by h_psi:
     h_psi:pot    :    100.17s CPU    104.95s WALL (    1257 calls)
     h_psi:calbec :     21.25s CPU     21.88s WALL (    1257 calls)
     vloc_psi     :     57.36s CPU     61.36s WALL (    1257 calls)
     add_vuspsi   :     21.55s CPU     21.69s WALL (    1257 calls)

     General routines
     calbec       :     33.08s CPU     33.94s WALL (    1692 calls)
     fft          :      0.17s CPU      0.17s WALL (     136 calls)
     ffts         :      0.00s CPU      0.01s WALL (      10 calls)
     fftw         :     58.76s CPU     62.95s WALL (  114446 calls)

     Parallel routines
     fft_scatt_xy :     11.22s CPU     12.17s WALL (  114592 calls)
     fft_scatt_yz :     16.87s CPU     18.28s WALL (  114592 calls)

     PWSCF        :   4m 2.22s CPU   4m 9.42s WALL


   This run was terminated on:  16:53:33  13Aug2019            

=------------------------------------------------------------------------------=
   JOB DONE.
=------------------------------------------------------------------------------=
