
     Program PWSCF v.6.4.1 starts on 13Aug2019 at 16:53:34 

     This program is part of the open-source Quantum ESPRESSO suite
     for quantum simulation of materials; please cite
         "P. Giannozzi et al., J. Phys.:Condens. Matter 21 395502 (2009);
         "P. Giannozzi et al., J. Phys.:Condens. Matter 29 465901 (2017);
          URL http://www.quantum-espresso.org", 
     in publications or presentations arising from this work. More details at
     http://www.quantum-espresso.org/quote

     Parallel version (MPI), running on     8 processors

     MPI processes distributed on     1 nodes
     R & G space division:  proc/nbgrp/npool/nimage =       8
     Waiting for input...
     Reading input from standard input

     Current dimensions of program PWSCF are:
     Max number of different atomic species (ntypx) = 10
     Max number of k-points (npk) =  40000
     Max angular momentum in pseudopotentials (lmaxx) =  3

     Atomic positions and unit cell read from directory:
     tmp/si.save/


     Subspace diagonalization in iterative solution of the eigenvalue problem:
     a serial algorithm will be used

     Found symmetry operation: I + (  0.0000  0.0000  0.5000)
     This is a supercell, fractional translations are disabled
     Message from routine setup:
     DEPRECATED: symmetry with ibrav=0, use correct ibrav instead

     Parallelization info
     --------------------
     sticks:   dense  smooth     PW     G-vecs:    dense   smooth      PW
     Min         331     331     93                11264    11264    1679
     Max         332     332     94                11267    11267    1682
     Sum        2653    2653    745                90129    90129   13443



     bravais-lattice index     =            0
     lattice parameter (alat)  =      14.5131  a.u.
     unit-cell volume          =    2208.2871 (a.u.)^3
     number of atoms/cell      =           16
     number of atomic types    =            1
     number of electrons       =        64.00
     number of Kohn-Sham states=           65
     kinetic-energy cutoff     =      45.0000  Ry
     charge density cutoff     =     180.0000  Ry
     Exchange-correlation      = PBE ( 1  4  3  4 0 0)

     celldm(1)=  14.513150  celldm(2)=   0.000000  celldm(3)=   0.000000
     celldm(4)=   0.000000  celldm(5)=   0.000000  celldm(6)=   0.000000

     crystal axes: (cart. coord. in units of alat)
               a(1) = (   0.000000   0.712164   0.712164 )  
               a(2) = (   0.712164   0.000000   0.712164 )  
               a(3) = (   0.712164   0.712164   0.000000 )  

     reciprocal axes: (cart. coord. in units 2 pi/alat)
               b(1) = ( -0.702085  0.702085  0.702085 )  
               b(2) = (  0.702085 -0.702085  0.702085 )  
               b(3) = (  0.702085  0.702085 -0.702085 )  


     PseudoPot. # 1 for Si read from file:
     ./Si.pbe-n-rrkjus_psl.1.0.0.UPF
     MD5 check sum: fa25574f73a70a4139f2adfbefec430c
     Pseudo is Ultrasoft + core correction, Zval =  4.0
     Generated using "atomic" code by A. Dal Corso v.6.3
     Using radial grid of 1141 points,  6 beta functions with: 
                l(1) =   0
                l(2) =   0
                l(3) =   1
                l(4) =   1
                l(5) =   2
                l(6) =   2
     Q(r) pseudized with 0 coefficients 


     atomic species   valence    mass     pseudopotential
        Si             4.00    28.08550     Si( 1.00)

     24 Sym. Ops. (no inversion) found


                                    s                        frac. trans.

      isym =  1     identity                                     

 cryst.   s( 1) = (     1          0          0      )
                  (     0          1          0      )
                  (     0          0          1      )

 cart.    s( 1) = (  1.0000000  0.0000000  0.0000000 )
                  (  0.0000000  1.0000000  0.0000000 )
                  (  0.0000000  0.0000000  1.0000000 )


      isym =  2     180 deg rotation - cart. axis [0,0,1]        

 cryst.   s( 2) = (     0          1         -1      )
                  (     1          0         -1      )
                  (     0          0         -1      )

 cart.    s( 2) = ( -1.0000000  0.0000000  0.0000000 )
                  (  0.0000000 -1.0000000  0.0000000 )
                  (  0.0000000  0.0000000  1.0000000 )


      isym =  3     180 deg rotation - cart. axis [0,1,0]        

 cryst.   s( 3) = (     0         -1          1      )
                  (     0         -1          0      )
                  (     1         -1          0      )

 cart.    s( 3) = ( -1.0000000  0.0000000  0.0000000 )
                  (  0.0000000  1.0000000  0.0000000 )
                  (  0.0000000  0.0000000 -1.0000000 )


      isym =  4     180 deg rotation - cart. axis [1,0,0]        

 cryst.   s( 4) = (    -1          0          0      )
                  (    -1          0          1      )
                  (    -1          1          0      )

 cart.    s( 4) = (  1.0000000  0.0000000  0.0000000 )
                  (  0.0000000 -1.0000000  0.0000000 )
                  (  0.0000000  0.0000000 -1.0000000 )


      isym =  5     120 deg rotation - cart. axis [-1,-1,-1]     

 cryst.   s( 5) = (     0          0          1      )
                  (     1          0          0      )
                  (     0          1          0      )

 cart.    s( 5) = (  0.0000000  1.0000000  0.0000000 )
                  (  0.0000000  0.0000000  1.0000000 )
                  (  1.0000000  0.0000000  0.0000000 )


      isym =  6     120 deg rotation - cart. axis [-1,1,1]       

 cryst.   s( 6) = (     1         -1          0      )
                  (     0         -1          1      )
                  (     0         -1          0      )

 cart.    s( 6) = (  0.0000000 -1.0000000  0.0000000 )
                  (  0.0000000  0.0000000  1.0000000 )
                  ( -1.0000000  0.0000000  0.0000000 )


      isym =  7     120 deg rotation - cart. axis [1,1,-1]       

 cryst.   s( 7) = (    -1          1          0      )
                  (    -1          0          0      )
                  (    -1          0          1      )

 cart.    s( 7) = (  0.0000000  1.0000000  0.0000000 )
                  (  0.0000000  0.0000000 -1.0000000 )
                  ( -1.0000000  0.0000000  0.0000000 )


      isym =  8     120 deg rotation - cart. axis [1,-1,1]       

 cryst.   s( 8) = (     0          0         -1      )
                  (     0          1         -1      )
                  (     1          0         -1      )

 cart.    s( 8) = (  0.0000000 -1.0000000  0.0000000 )
                  (  0.0000000  0.0000000 -1.0000000 )
                  (  1.0000000  0.0000000  0.0000000 )


      isym =  9     120 deg rotation - cart. axis [1,1,1]        

 cryst.   s( 9) = (     0          1          0      )
                  (     0          0          1      )
                  (     1          0          0      )

 cart.    s( 9) = (  0.0000000  0.0000000  1.0000000 )
                  (  1.0000000  0.0000000  0.0000000 )
                  (  0.0000000  1.0000000  0.0000000 )


      isym = 10     120 deg rotation - cart. axis [-1,1,-1]      

 cryst.   s(10) = (    -1          0          1      )
                  (    -1          1          0      )
                  (    -1          0          0      )

 cart.    s(10) = (  0.0000000  0.0000000  1.0000000 )
                  ( -1.0000000  0.0000000  0.0000000 )
                  (  0.0000000 -1.0000000  0.0000000 )


      isym = 11     120 deg rotation - cart. axis [1,-1,-1]      

 cryst.   s(11) = (     1          0         -1      )
                  (     0          0         -1      )
                  (     0          1         -1      )

 cart.    s(11) = (  0.0000000  0.0000000 -1.0000000 )
                  ( -1.0000000  0.0000000  0.0000000 )
                  (  0.0000000  1.0000000  0.0000000 )


      isym = 12     120 deg rotation - cart. axis [-1,-1,1]      

 cryst.   s(12) = (     0         -1          0      )
                  (     1         -1          0      )
                  (     0         -1          1      )

 cart.    s(12) = (  0.0000000  0.0000000 -1.0000000 )
                  (  1.0000000  0.0000000  0.0000000 )
                  (  0.0000000 -1.0000000  0.0000000 )


      isym = 13     inv. 180 deg rotation - cart. axis [1,1,0]   

 cryst.   s(13) = (     1          0         -1      )
                  (     0          1         -1      )
                  (     0          0         -1      )

 cart.    s(13) = (  0.0000000 -1.0000000  0.0000000 )
                  ( -1.0000000  0.0000000  0.0000000 )
                  (  0.0000000  0.0000000  1.0000000 )


      isym = 14     inv. 180 deg rotation - cart. axis [1,-1,0]  

 cryst.   s(14) = (     0          1          0      )
                  (     1          0          0      )
                  (     0          0          1      )

 cart.    s(14) = (  0.0000000  1.0000000  0.0000000 )
                  (  1.0000000  0.0000000  0.0000000 )
                  (  0.0000000  0.0000000  1.0000000 )


      isym = 15     inv.  90 deg rotation - cart. axis [0,0,-1]  

 cryst.   s(15) = (     0         -1          0      )
                  (     0         -1          1      )
                  (     1         -1          0      )

 cart.    s(15) = (  0.0000000 -1.0000000  0.0000000 )
                  (  1.0000000  0.0000000  0.0000000 )
                  (  0.0000000  0.0000000 -1.0000000 )


      isym = 16     inv.  90 deg rotation - cart. axis [0,0,1]   

 cryst.   s(16) = (    -1          0          1      )
                  (    -1          0          0      )
                  (    -1          1          0      )

 cart.    s(16) = (  0.0000000  1.0000000  0.0000000 )
                  ( -1.0000000  0.0000000  0.0000000 )
                  (  0.0000000  0.0000000 -1.0000000 )


      isym = 17     inv. 180 deg rotation - cart. axis [1,0,1]   

 cryst.   s(17) = (     1         -1          0      )
                  (     0         -1          0      )
                  (     0         -1          1      )

 cart.    s(17) = (  0.0000000  0.0000000 -1.0000000 )
                  (  0.0000000  1.0000000  0.0000000 )
                  ( -1.0000000  0.0000000  0.0000000 )


      isym = 18     inv. 180 deg rotation - cart. axis [-1,0,1]  

 cryst.   s(18) = (     0          0          1      )
                  (     0          1          0      )
                  (     1          0          0      )

 cart.    s(18) = (  0.0000000  0.0000000  1.0000000 )
                  (  0.0000000  1.0000000  0.0000000 )
                  (  1.0000000  0.0000000  0.0000000 )


      isym = 19     inv.  90 deg rotation - cart. axis [0,1,0]   

 cryst.   s(19) = (     0          0         -1      )
                  (     1          0         -1      )
                  (     0          1         -1      )

 cart.    s(19) = (  0.0000000  0.0000000 -1.0000000 )
                  (  0.0000000 -1.0000000  0.0000000 )
                  (  1.0000000  0.0000000  0.0000000 )


      isym = 20     inv.  90 deg rotation - cart. axis [0,-1,0]  

 cryst.   s(20) = (    -1          1          0      )
                  (    -1          0          1      )
                  (    -1          0          0      )

 cart.    s(20) = (  0.0000000  0.0000000  1.0000000 )
                  (  0.0000000 -1.0000000  0.0000000 )
                  ( -1.0000000  0.0000000  0.0000000 )


      isym = 21     inv. 180 deg rotation - cart. axis [0,1,1]   

 cryst.   s(21) = (    -1          0          0      )
                  (    -1          1          0      )
                  (    -1          0          1      )

 cart.    s(21) = (  1.0000000  0.0000000  0.0000000 )
                  (  0.0000000  0.0000000 -1.0000000 )
                  (  0.0000000 -1.0000000  0.0000000 )


      isym = 22     inv. 180 deg rotation - cart. axis [0,1,-1]  

 cryst.   s(22) = (     1          0          0      )
                  (     0          0          1      )
                  (     0          1          0      )

 cart.    s(22) = (  1.0000000  0.0000000  0.0000000 )
                  (  0.0000000  0.0000000  1.0000000 )
                  (  0.0000000  1.0000000  0.0000000 )


      isym = 23     inv.  90 deg rotation - cart. axis [-1,0,0]  

 cryst.   s(23) = (     0          1         -1      )
                  (     0          0         -1      )
                  (     1          0         -1      )

 cart.    s(23) = ( -1.0000000  0.0000000  0.0000000 )
                  (  0.0000000  0.0000000 -1.0000000 )
                  (  0.0000000  1.0000000  0.0000000 )


      isym = 24     inv.  90 deg rotation - cart. axis [1,0,0]   

 cryst.   s(24) = (     0         -1          1      )
                  (     1         -1          0      )
                  (     0         -1          0      )

 cart.    s(24) = ( -1.0000000  0.0000000  0.0000000 )
                  (  0.0000000  0.0000000  1.0000000 )
                  (  0.0000000 -1.0000000  0.0000000 )


   Cartesian axes

     site n.     atom                  positions (alat units)
         1           Si  tau(   1) = (   0.0000000   0.0000000   0.0000000  )
         2           Si  tau(   2) = (   0.1780411   0.1780411   0.1780411  )
         3           Si  tau(   3) = (   0.3560821   0.3560821   0.0000000  )
         4           Si  tau(   4) = (   0.5341232   0.5341232   0.1780411  )
         5           Si  tau(   5) = (   0.3560821   0.0000000   0.3560821  )
         6           Si  tau(   6) = (   0.5341232   0.1780411   0.5341232  )
         7           Si  tau(   7) = (   0.7121642   0.3560821   0.3560821  )
         8           Si  tau(   8) = (   0.8902053   0.5341232   0.5341232  )
         9           Si  tau(   9) = (   0.0000000   0.3560821   0.3560821  )
        10           Si  tau(  10) = (   0.1780411   0.5341232   0.5341232  )
        11           Si  tau(  11) = (   0.3560821   0.7121642   0.3560821  )
        12           Si  tau(  12) = (   0.5341232   0.8902053   0.5341232  )
        13           Si  tau(  13) = (   0.3560821   0.3560821   0.7121642  )
        14           Si  tau(  14) = (   0.5341232   0.5341232   0.8902053  )
        15           Si  tau(  15) = (   0.7121642   0.7121642   0.7121642  )
        16           Si  tau(  16) = (   0.8902053   0.8902053   0.8902053  )

   Crystallographic axes

     site n.     atom                  positions (cryst. coord.)
         1           Si  tau(   1) = (  0.0000000  0.0000000  0.0000000  )
         2           Si  tau(   2) = (  0.1250000  0.1250000  0.1250000  )
         3           Si  tau(   3) = (  0.0000000  0.0000000  0.5000000  )
         4           Si  tau(   4) = (  0.1250000  0.1250000  0.6250000  )
         5           Si  tau(   5) = (  0.0000000  0.5000000  0.0000000  )
         6           Si  tau(   6) = (  0.1250000  0.6250000  0.1250000  )
         7           Si  tau(   7) = (  0.0000000  0.5000000  0.5000000  )
         8           Si  tau(   8) = (  0.1250000  0.6250000  0.6250000  )
         9           Si  tau(   9) = (  0.5000000  0.0000000  0.0000000  )
        10           Si  tau(  10) = (  0.6250000  0.1250000  0.1250000  )
        11           Si  tau(  11) = (  0.5000000  0.0000000  0.5000000  )
        12           Si  tau(  12) = (  0.6250000  0.1250000  0.6250000  )
        13           Si  tau(  13) = (  0.5000000  0.5000000  0.0000000  )
        14           Si  tau(  14) = (  0.6250000  0.6250000  0.1250000  )
        15           Si  tau(  15) = (  0.5000000  0.5000000  0.5000000  )
        16           Si  tau(  16) = (  0.6250000  0.6250000  0.6250000  )

     number of k points=   145 (tetrahedron method)
                       cart. coord. in units 2pi/alat
        k(    1) = (   0.0000000   0.0000000   0.0000000), wk =   0.0004883
        k(    2) = (   0.0438803   0.0438803  -0.0438803), wk =   0.0039062
        k(    3) = (   0.0877607   0.0877607  -0.0877607), wk =   0.0039062
        k(    4) = (   0.1316410   0.1316410  -0.1316410), wk =   0.0039062
        k(    5) = (   0.1755213   0.1755213  -0.1755213), wk =   0.0039062
        k(    6) = (   0.2194016   0.2194016  -0.2194016), wk =   0.0039062
        k(    7) = (   0.2632820   0.2632820  -0.2632820), wk =   0.0039062
        k(    8) = (   0.3071623   0.3071623  -0.3071623), wk =   0.0039062
        k(    9) = (  -0.3510426  -0.3510426   0.3510426), wk =   0.0019531
        k(   10) = (   0.0877607   0.0000000   0.0000000), wk =   0.0029297
        k(   11) = (   0.1316410   0.0438803  -0.0438803), wk =   0.0117188
        k(   12) = (   0.1755213   0.0877607  -0.0877607), wk =   0.0117188
        k(   13) = (   0.2194016   0.1316410  -0.1316410), wk =   0.0117188
        k(   14) = (   0.2632820   0.1755213  -0.1755213), wk =   0.0117188
        k(   15) = (   0.3071623   0.2194016  -0.2194016), wk =   0.0117188
        k(   16) = (   0.3510426   0.2632820  -0.2632820), wk =   0.0117188
        k(   17) = (  -0.3071623  -0.3949229   0.3949229), wk =   0.0117188
        k(   18) = (  -0.2632820  -0.3510426   0.3510426), wk =   0.0117188
        k(   19) = (  -0.2194016  -0.3071623   0.3071623), wk =   0.0117188
        k(   20) = (  -0.1755213  -0.2632820   0.2632820), wk =   0.0117188
        k(   21) = (  -0.1316410  -0.2194016   0.2194016), wk =   0.0117188
        k(   22) = (  -0.0877607  -0.1755213   0.1755213), wk =   0.0117188
        k(   23) = (  -0.0438803  -0.1316410   0.1316410), wk =   0.0117188
        k(   24) = (   0.0000000  -0.0877607   0.0877607), wk =   0.0058594
        k(   25) = (   0.1755213   0.0000000   0.0000000), wk =   0.0029297
        k(   26) = (   0.2194016   0.0438803  -0.0438803), wk =   0.0117188
        k(   27) = (   0.2632820   0.0877607  -0.0877607), wk =   0.0117188
        k(   28) = (   0.3071623   0.1316410  -0.1316410), wk =   0.0117188
        k(   29) = (   0.3510426   0.1755213  -0.1755213), wk =   0.0117188
        k(   30) = (   0.3949229   0.2194016  -0.2194016), wk =   0.0117188
        k(   31) = (  -0.2632820  -0.4388033   0.4388033), wk =   0.0117188
        k(   32) = (  -0.2194016  -0.3949229   0.3949229), wk =   0.0117188
        k(   33) = (  -0.1755213  -0.3510426   0.3510426), wk =   0.0117188
        k(   34) = (  -0.1316410  -0.3071623   0.3071623), wk =   0.0117188
        k(   35) = (  -0.0877607  -0.2632820   0.2632820), wk =   0.0117188
        k(   36) = (  -0.0438803  -0.2194016   0.2194016), wk =   0.0117188
        k(   37) = (   0.0000000  -0.1755213   0.1755213), wk =   0.0058594
        k(   38) = (   0.2632820   0.0000000   0.0000000), wk =   0.0029297
        k(   39) = (   0.3071623   0.0438803  -0.0438803), wk =   0.0117188
        k(   40) = (   0.3510426   0.0877607  -0.0877607), wk =   0.0117188
        k(   41) = (   0.3949229   0.1316410  -0.1316410), wk =   0.0117188
        k(   42) = (   0.4388033   0.1755213  -0.1755213), wk =   0.0117188
        k(   43) = (  -0.2194016  -0.4826836   0.4826836), wk =   0.0117188
        k(   44) = (  -0.1755213  -0.4388033   0.4388033), wk =   0.0117188
        k(   45) = (  -0.1316410  -0.3949229   0.3949229), wk =   0.0117188
        k(   46) = (  -0.0877607  -0.3510426   0.3510426), wk =   0.0117188
        k(   47) = (  -0.0438803  -0.3071623   0.3071623), wk =   0.0117188
        k(   48) = (   0.0000000  -0.2632820   0.2632820), wk =   0.0058594
        k(   49) = (   0.3510426   0.0000000   0.0000000), wk =   0.0029297
        k(   50) = (   0.3949229   0.0438803  -0.0438803), wk =   0.0117188
        k(   51) = (   0.4388033   0.0877607  -0.0877607), wk =   0.0117188
        k(   52) = (   0.4826836   0.1316410  -0.1316410), wk =   0.0117188
        k(   53) = (  -0.1755213  -0.5265639   0.5265639), wk =   0.0117188
        k(   54) = (  -0.1316410  -0.4826836   0.4826836), wk =   0.0117188
        k(   55) = (  -0.0877607  -0.4388033   0.4388033), wk =   0.0117188
        k(   56) = (  -0.0438803  -0.3949229   0.3949229), wk =   0.0117188
        k(   57) = (   0.0000000  -0.3510426   0.3510426), wk =   0.0058594
        k(   58) = (   0.4388033   0.0000000   0.0000000), wk =   0.0029297
        k(   59) = (   0.4826836   0.0438803  -0.0438803), wk =   0.0117188
        k(   60) = (   0.5265639   0.0877607  -0.0877607), wk =   0.0117188
        k(   61) = (  -0.1316410  -0.5704443   0.5704443), wk =   0.0117188
        k(   62) = (  -0.0877607  -0.5265639   0.5265639), wk =   0.0117188
        k(   63) = (  -0.0438803  -0.4826836   0.4826836), wk =   0.0117188
        k(   64) = (   0.0000000  -0.4388033   0.4388033), wk =   0.0058594
        k(   65) = (   0.5265639   0.0000000   0.0000000), wk =   0.0029297
        k(   66) = (   0.5704443   0.0438803  -0.0438803), wk =   0.0117188
        k(   67) = (  -0.0877607  -0.6143246   0.6143246), wk =   0.0117188
        k(   68) = (  -0.0438803  -0.5704443   0.5704443), wk =   0.0117188
        k(   69) = (   0.0000000  -0.5265639   0.5265639), wk =   0.0058594
        k(   70) = (   0.6143246   0.0000000   0.0000000), wk =   0.0029297
        k(   71) = (  -0.0438803  -0.6582049   0.6582049), wk =   0.0117188
        k(   72) = (   0.0000000  -0.6143246   0.6143246), wk =   0.0058594
        k(   73) = (  -0.7020852   0.0000000   0.0000000), wk =   0.0014648
        k(   74) = (   0.1755213   0.0877607   0.0000000), wk =   0.0117188
        k(   75) = (   0.2194016   0.1316410  -0.0438803), wk =   0.0234375
        k(   76) = (   0.2632820   0.1755213  -0.0877607), wk =   0.0234375
        k(   77) = (   0.3071623   0.2194016  -0.1316410), wk =   0.0234375
        k(   78) = (   0.3510426   0.2632820  -0.1755213), wk =   0.0234375
        k(   79) = (  -0.3071623  -0.3949229   0.4826836), wk =   0.0234375
        k(   80) = (  -0.2632820  -0.3510426   0.4388033), wk =   0.0117188
        k(   81) = (   0.2632820   0.0877607   0.0000000), wk =   0.0117188
        k(   82) = (   0.3071623   0.1316410  -0.0438803), wk =   0.0234375
        k(   83) = (   0.3510426   0.1755213  -0.0877607), wk =   0.0234375
        k(   84) = (   0.3949229   0.2194016  -0.1316410), wk =   0.0234375
        k(   85) = (  -0.2632820  -0.4388033   0.5265639), wk =   0.0234375
        k(   86) = (  -0.2194016  -0.3949229   0.4826836), wk =   0.0234375
        k(   87) = (  -0.1755213  -0.3510426   0.4388033), wk =   0.0234375
        k(   88) = (  -0.1316410  -0.3071623   0.3949229), wk =   0.0234375
        k(   89) = (  -0.0877607  -0.2632820   0.3510426), wk =   0.0234375
        k(   90) = (  -0.0438803  -0.2194016   0.3071623), wk =   0.0234375
        k(   91) = (   0.0000000  -0.1755213   0.2632820), wk =   0.0117188
        k(   92) = (   0.3510426   0.0877607   0.0000000), wk =   0.0117188
        k(   93) = (   0.3949229   0.1316410  -0.0438803), wk =   0.0234375
        k(   94) = (   0.4388033   0.1755213  -0.0877607), wk =   0.0234375
        k(   95) = (  -0.2194016  -0.4826836   0.5704443), wk =   0.0234375
        k(   96) = (  -0.1755213  -0.4388033   0.5265639), wk =   0.0234375
        k(   97) = (  -0.1316410  -0.3949229   0.4826836), wk =   0.0234375
        k(   98) = (  -0.0877607  -0.3510426   0.4388033), wk =   0.0234375
        k(   99) = (  -0.0438803  -0.3071623   0.3949229), wk =   0.0234375
        k(  100) = (   0.0000000  -0.2632820   0.3510426), wk =   0.0117188
        k(  101) = (   0.4388033   0.0877607  -0.0000000), wk =   0.0117188
        k(  102) = (   0.4826836   0.1316410  -0.0438803), wk =   0.0234375
        k(  103) = (  -0.1755213  -0.5265639   0.6143246), wk =   0.0234375
        k(  104) = (  -0.1316410  -0.4826836   0.5704443), wk =   0.0234375
        k(  105) = (  -0.0877607  -0.4388033   0.5265639), wk =   0.0234375
        k(  106) = (  -0.0438803  -0.3949229   0.4826836), wk =   0.0234375
        k(  107) = (   0.0000000  -0.3510426   0.4388033), wk =   0.0117188
        k(  108) = (   0.5265639   0.0877607   0.0000000), wk =   0.0117188
        k(  109) = (  -0.1316410  -0.5704443   0.6582049), wk =   0.0234375
        k(  110) = (  -0.0877607  -0.5265639   0.6143246), wk =   0.0234375
        k(  111) = (  -0.0438803  -0.4826836   0.5704443), wk =   0.0234375
        k(  112) = (   0.0000000  -0.4388033   0.5265639), wk =   0.0117188
        k(  113) = (  -0.0877607  -0.6143246   0.7020852), wk =   0.0117188
        k(  114) = (  -0.0438803  -0.5704443   0.6582049), wk =   0.0234375
        k(  115) = (   0.0000000  -0.5265639   0.6143246), wk =   0.0117188
        k(  116) = (  -0.7020852   0.0877607   0.0000000), wk =   0.0058594
        k(  117) = (   0.3510426   0.1755213   0.0000000), wk =   0.0117188
        k(  118) = (   0.3949229   0.2194016  -0.0438803), wk =   0.0234375
        k(  119) = (  -0.2632820  -0.4388033   0.6143246), wk =   0.0234375
        k(  120) = (  -0.2194016  -0.3949229   0.5704443), wk =   0.0234375
        k(  121) = (  -0.1755213  -0.3510426   0.5265639), wk =   0.0117188
        k(  122) = (   0.4388033   0.1755213  -0.0000000), wk =   0.0117188
        k(  123) = (  -0.2194016  -0.4826836   0.6582049), wk =   0.0234375
        k(  124) = (  -0.1755213  -0.4388033   0.6143246), wk =   0.0234375
        k(  125) = (  -0.1316410  -0.3949229   0.5704443), wk =   0.0234375
        k(  126) = (  -0.0877607  -0.3510426   0.5265639), wk =   0.0234375
        k(  127) = (  -0.0438803  -0.3071623   0.4826836), wk =   0.0234375
        k(  128) = (  -0.0000000  -0.2632820   0.4388033), wk =   0.0117188
        k(  129) = (  -0.1755213  -0.5265639   0.7020852), wk =   0.0117188
        k(  130) = (  -0.1316410  -0.4826836   0.6582049), wk =   0.0234375
        k(  131) = (  -0.0877607  -0.4388033   0.6143246), wk =   0.0234375
        k(  132) = (  -0.0438803  -0.3949229   0.5704443), wk =   0.0234375
        k(  133) = (   0.0000000  -0.3510426   0.5265639), wk =   0.0117188
        k(  134) = (  -0.0877607  -0.5265639   0.7020852), wk =   0.0117188
        k(  135) = (  -0.0438803  -0.4826836   0.6582049), wk =   0.0234375
        k(  136) = (   0.0000000  -0.4388033   0.6143246), wk =   0.0117188
        k(  137) = (  -0.7020852   0.1755213   0.0000000), wk =   0.0058594
        k(  138) = (  -0.1755213  -0.4388033   0.7020852), wk =   0.0117188
        k(  139) = (  -0.1316410  -0.3949229   0.6582049), wk =   0.0234375
        k(  140) = (  -0.0877607  -0.3510426   0.6143246), wk =   0.0117188
        k(  141) = (  -0.0877607  -0.4388033   0.7020852), wk =   0.0117188
        k(  142) = (  -0.0438803  -0.3949229   0.6582049), wk =   0.0234375
        k(  143) = (  -0.0000000  -0.3510426   0.6143246), wk =   0.0117188
        k(  144) = (  -0.7020852   0.2632820   0.0000000), wk =   0.0058594
        k(  145) = (  -0.7020852   0.3510426   0.0000000), wk =   0.0029297

                       cryst. coord.
        k(    1) = (   0.0000000   0.0000000   0.0000000), wk =   0.0004883
        k(    2) = (   0.0000000   0.0000000   0.0625000), wk =   0.0039062
        k(    3) = (   0.0000000   0.0000000   0.1250000), wk =   0.0039062
        k(    4) = (   0.0000000   0.0000000   0.1875000), wk =   0.0039062
        k(    5) = (   0.0000000   0.0000000   0.2500000), wk =   0.0039062
        k(    6) = (   0.0000000   0.0000000   0.3125000), wk =   0.0039062
        k(    7) = (   0.0000000   0.0000000   0.3750000), wk =   0.0039062
        k(    8) = (   0.0000000   0.0000000   0.4375000), wk =   0.0039062
        k(    9) = (   0.0000000   0.0000000  -0.5000000), wk =   0.0019531
        k(   10) = (   0.0000000   0.0625000   0.0625000), wk =   0.0029297
        k(   11) = (   0.0000000   0.0625000   0.1250000), wk =   0.0117188
        k(   12) = (   0.0000000   0.0625000   0.1875000), wk =   0.0117188
        k(   13) = (   0.0000000   0.0625000   0.2500000), wk =   0.0117188
        k(   14) = (   0.0000000   0.0625000   0.3125000), wk =   0.0117188
        k(   15) = (   0.0000000   0.0625000   0.3750000), wk =   0.0117188
        k(   16) = (   0.0000000   0.0625000   0.4375000), wk =   0.0117188
        k(   17) = (   0.0000000   0.0625000  -0.5000000), wk =   0.0117188
        k(   18) = (   0.0000000   0.0625000  -0.4375000), wk =   0.0117188
        k(   19) = (   0.0000000   0.0625000  -0.3750000), wk =   0.0117188
        k(   20) = (   0.0000000   0.0625000  -0.3125000), wk =   0.0117188
        k(   21) = (   0.0000000   0.0625000  -0.2500000), wk =   0.0117188
        k(   22) = (   0.0000000   0.0625000  -0.1875000), wk =   0.0117188
        k(   23) = (   0.0000000   0.0625000  -0.1250000), wk =   0.0117188
        k(   24) = (   0.0000000   0.0625000  -0.0625000), wk =   0.0058594
        k(   25) = (   0.0000000   0.1250000   0.1250000), wk =   0.0029297
        k(   26) = (   0.0000000   0.1250000   0.1875000), wk =   0.0117188
        k(   27) = (   0.0000000   0.1250000   0.2500000), wk =   0.0117188
        k(   28) = (   0.0000000   0.1250000   0.3125000), wk =   0.0117188
        k(   29) = (   0.0000000   0.1250000   0.3750000), wk =   0.0117188
        k(   30) = (   0.0000000   0.1250000   0.4375000), wk =   0.0117188
        k(   31) = (   0.0000000   0.1250000  -0.5000000), wk =   0.0117188
        k(   32) = (   0.0000000   0.1250000  -0.4375000), wk =   0.0117188
        k(   33) = (   0.0000000   0.1250000  -0.3750000), wk =   0.0117188
        k(   34) = (   0.0000000   0.1250000  -0.3125000), wk =   0.0117188
        k(   35) = (   0.0000000   0.1250000  -0.2500000), wk =   0.0117188
        k(   36) = (   0.0000000   0.1250000  -0.1875000), wk =   0.0117188
        k(   37) = (   0.0000000   0.1250000  -0.1250000), wk =   0.0058594
        k(   38) = (   0.0000000   0.1875000   0.1875000), wk =   0.0029297
        k(   39) = (   0.0000000   0.1875000   0.2500000), wk =   0.0117188
        k(   40) = (   0.0000000   0.1875000   0.3125000), wk =   0.0117188
        k(   41) = (   0.0000000   0.1875000   0.3750000), wk =   0.0117188
        k(   42) = (   0.0000000   0.1875000   0.4375000), wk =   0.0117188
        k(   43) = (   0.0000000   0.1875000  -0.5000000), wk =   0.0117188
        k(   44) = (   0.0000000   0.1875000  -0.4375000), wk =   0.0117188
        k(   45) = (   0.0000000   0.1875000  -0.3750000), wk =   0.0117188
        k(   46) = (   0.0000000   0.1875000  -0.3125000), wk =   0.0117188
        k(   47) = (   0.0000000   0.1875000  -0.2500000), wk =   0.0117188
        k(   48) = (   0.0000000   0.1875000  -0.1875000), wk =   0.0058594
        k(   49) = (   0.0000000   0.2500000   0.2500000), wk =   0.0029297
        k(   50) = (   0.0000000   0.2500000   0.3125000), wk =   0.0117188
        k(   51) = (   0.0000000   0.2500000   0.3750000), wk =   0.0117188
        k(   52) = (   0.0000000   0.2500000   0.4375000), wk =   0.0117188
        k(   53) = (   0.0000000   0.2500000  -0.5000000), wk =   0.0117188
        k(   54) = (   0.0000000   0.2500000  -0.4375000), wk =   0.0117188
        k(   55) = (   0.0000000   0.2500000  -0.3750000), wk =   0.0117188
        k(   56) = (   0.0000000   0.2500000  -0.3125000), wk =   0.0117188
        k(   57) = (   0.0000000   0.2500000  -0.2500000), wk =   0.0058594
        k(   58) = (   0.0000000   0.3125000   0.3125000), wk =   0.0029297
        k(   59) = (   0.0000000   0.3125000   0.3750000), wk =   0.0117188
        k(   60) = (   0.0000000   0.3125000   0.4375000), wk =   0.0117188
        k(   61) = (   0.0000000   0.3125000  -0.5000000), wk =   0.0117188
        k(   62) = (   0.0000000   0.3125000  -0.4375000), wk =   0.0117188
        k(   63) = (   0.0000000   0.3125000  -0.3750000), wk =   0.0117188
        k(   64) = (   0.0000000   0.3125000  -0.3125000), wk =   0.0058594
        k(   65) = (   0.0000000   0.3750000   0.3750000), wk =   0.0029297
        k(   66) = (   0.0000000   0.3750000   0.4375000), wk =   0.0117188
        k(   67) = (   0.0000000   0.3750000  -0.5000000), wk =   0.0117188
        k(   68) = (   0.0000000   0.3750000  -0.4375000), wk =   0.0117188
        k(   69) = (   0.0000000   0.3750000  -0.3750000), wk =   0.0058594
        k(   70) = (   0.0000000   0.4375000   0.4375000), wk =   0.0029297
        k(   71) = (   0.0000000   0.4375000  -0.5000000), wk =   0.0117188
        k(   72) = (   0.0000000   0.4375000  -0.4375000), wk =   0.0058594
        k(   73) = (   0.0000000  -0.5000000  -0.5000000), wk =   0.0014648
        k(   74) = (   0.0625000   0.1250000   0.1875000), wk =   0.0117188
        k(   75) = (   0.0625000   0.1250000   0.2500000), wk =   0.0234375
        k(   76) = (   0.0625000   0.1250000   0.3125000), wk =   0.0234375
        k(   77) = (   0.0625000   0.1250000   0.3750000), wk =   0.0234375
        k(   78) = (   0.0625000   0.1250000   0.4375000), wk =   0.0234375
        k(   79) = (   0.0625000   0.1250000  -0.5000000), wk =   0.0234375
        k(   80) = (   0.0625000   0.1250000  -0.4375000), wk =   0.0117188
        k(   81) = (   0.0625000   0.1875000   0.2500000), wk =   0.0117188
        k(   82) = (   0.0625000   0.1875000   0.3125000), wk =   0.0234375
        k(   83) = (   0.0625000   0.1875000   0.3750000), wk =   0.0234375
        k(   84) = (   0.0625000   0.1875000   0.4375000), wk =   0.0234375
        k(   85) = (   0.0625000   0.1875000  -0.5000000), wk =   0.0234375
        k(   86) = (   0.0625000   0.1875000  -0.4375000), wk =   0.0234375
        k(   87) = (   0.0625000   0.1875000  -0.3750000), wk =   0.0234375
        k(   88) = (   0.0625000   0.1875000  -0.3125000), wk =   0.0234375
        k(   89) = (   0.0625000   0.1875000  -0.2500000), wk =   0.0234375
        k(   90) = (   0.0625000   0.1875000  -0.1875000), wk =   0.0234375
        k(   91) = (   0.0625000   0.1875000  -0.1250000), wk =   0.0117188
        k(   92) = (   0.0625000   0.2500000   0.3125000), wk =   0.0117188
        k(   93) = (   0.0625000   0.2500000   0.3750000), wk =   0.0234375
        k(   94) = (   0.0625000   0.2500000   0.4375000), wk =   0.0234375
        k(   95) = (   0.0625000   0.2500000  -0.5000000), wk =   0.0234375
        k(   96) = (   0.0625000   0.2500000  -0.4375000), wk =   0.0234375
        k(   97) = (   0.0625000   0.2500000  -0.3750000), wk =   0.0234375
        k(   98) = (   0.0625000   0.2500000  -0.3125000), wk =   0.0234375
        k(   99) = (   0.0625000   0.2500000  -0.2500000), wk =   0.0234375
        k(  100) = (   0.0625000   0.2500000  -0.1875000), wk =   0.0117188
        k(  101) = (   0.0625000   0.3125000   0.3750000), wk =   0.0117188
        k(  102) = (   0.0625000   0.3125000   0.4375000), wk =   0.0234375
        k(  103) = (   0.0625000   0.3125000  -0.5000000), wk =   0.0234375
        k(  104) = (   0.0625000   0.3125000  -0.4375000), wk =   0.0234375
        k(  105) = (   0.0625000   0.3125000  -0.3750000), wk =   0.0234375
        k(  106) = (   0.0625000   0.3125000  -0.3125000), wk =   0.0234375
        k(  107) = (   0.0625000   0.3125000  -0.2500000), wk =   0.0117188
        k(  108) = (   0.0625000   0.3750000   0.4375000), wk =   0.0117188
        k(  109) = (   0.0625000   0.3750000  -0.5000000), wk =   0.0234375
        k(  110) = (   0.0625000   0.3750000  -0.4375000), wk =   0.0234375
        k(  111) = (   0.0625000   0.3750000  -0.3750000), wk =   0.0234375
        k(  112) = (   0.0625000   0.3750000  -0.3125000), wk =   0.0117188
        k(  113) = (   0.0625000   0.4375000  -0.5000000), wk =   0.0117188
        k(  114) = (   0.0625000   0.4375000  -0.4375000), wk =   0.0234375
        k(  115) = (   0.0625000   0.4375000  -0.3750000), wk =   0.0117188
        k(  116) = (   0.0625000  -0.5000000  -0.4375000), wk =   0.0058594
        k(  117) = (   0.1250000   0.2500000   0.3750000), wk =   0.0117188
        k(  118) = (   0.1250000   0.2500000   0.4375000), wk =   0.0234375
        k(  119) = (   0.1250000   0.2500000  -0.5000000), wk =   0.0234375
        k(  120) = (   0.1250000   0.2500000  -0.4375000), wk =   0.0234375
        k(  121) = (   0.1250000   0.2500000  -0.3750000), wk =   0.0117188
        k(  122) = (   0.1250000   0.3125000   0.4375000), wk =   0.0117188
        k(  123) = (   0.1250000   0.3125000  -0.5000000), wk =   0.0234375
        k(  124) = (   0.1250000   0.3125000  -0.4375000), wk =   0.0234375
        k(  125) = (   0.1250000   0.3125000  -0.3750000), wk =   0.0234375
        k(  126) = (   0.1250000   0.3125000  -0.3125000), wk =   0.0234375
        k(  127) = (   0.1250000   0.3125000  -0.2500000), wk =   0.0234375
        k(  128) = (   0.1250000   0.3125000  -0.1875000), wk =   0.0117188
        k(  129) = (   0.1250000   0.3750000  -0.5000000), wk =   0.0117188
        k(  130) = (   0.1250000   0.3750000  -0.4375000), wk =   0.0234375
        k(  131) = (   0.1250000   0.3750000  -0.3750000), wk =   0.0234375
        k(  132) = (   0.1250000   0.3750000  -0.3125000), wk =   0.0234375
        k(  133) = (   0.1250000   0.3750000  -0.2500000), wk =   0.0117188
        k(  134) = (   0.1250000   0.4375000  -0.4375000), wk =   0.0117188
        k(  135) = (   0.1250000   0.4375000  -0.3750000), wk =   0.0234375
        k(  136) = (   0.1250000   0.4375000  -0.3125000), wk =   0.0117188
        k(  137) = (   0.1250000  -0.5000000  -0.3750000), wk =   0.0058594
        k(  138) = (   0.1875000   0.3750000  -0.4375000), wk =   0.0117188
        k(  139) = (   0.1875000   0.3750000  -0.3750000), wk =   0.0234375
        k(  140) = (   0.1875000   0.3750000  -0.3125000), wk =   0.0117188
        k(  141) = (   0.1875000   0.4375000  -0.3750000), wk =   0.0117188
        k(  142) = (   0.1875000   0.4375000  -0.3125000), wk =   0.0234375
        k(  143) = (   0.1875000   0.4375000  -0.2500000), wk =   0.0117188
        k(  144) = (   0.1875000  -0.5000000  -0.3125000), wk =   0.0058594
        k(  145) = (   0.2500000  -0.5000000  -0.2500000), wk =   0.0029297

     Dense  grid:    90129 G-vectors     FFT dimensions: (  64,  64,  64)

     Dynamical RAM for                 wfc:       1.40 MB

     Dynamical RAM for     wfc (w. buffer):       1.40 MB

     Dynamical RAM for           str. fact:       0.17 MB

     Dynamical RAM for           local pot:       0.00 MB

     Dynamical RAM for          nlocal pot:       6.18 MB

     Dynamical RAM for                qrad:       2.48 MB

     Dynamical RAM for          rho,v,vnew:       1.27 MB

     Dynamical RAM for           G-vectors:       0.73 MB

     Dynamical RAM for          h,s,v(r/c):       3.09 MB

     Dynamical RAM for          <psi|beta>:       0.29 MB

     Dynamical RAM for                 psi:       5.58 MB

     Dynamical RAM for                hpsi:       5.58 MB

     Dynamical RAM for                spsi:       5.58 MB

     Dynamical RAM for      wfcinit/wfcrot:       2.89 MB

     Dynamical RAM for           addusdens:      34.73 MB

     Estimated static dynamical RAM per process >      13.83 MB

     Estimated max dynamical RAM per process >      48.55 MB

     Estimated total dynamical RAM >     388.43 MB

     The potential is recalculated from file :
     tmp/si.save/charge-density

     Starting wfcs are   64 randomized atomic wfcs +    1 random wfcs

     Band Structure Calculation
     Davidson diagonalization with overlap

     Computing kpt #:     1
     total cpu time spent up to now is        7.4 secs

     Computing kpt #:     2
     total cpu time spent up to now is       15.3 secs

     Computing kpt #:     3
     total cpu time spent up to now is       24.4 secs

     Computing kpt #:     4
     total cpu time spent up to now is       32.0 secs

     Computing kpt #:     5
     total cpu time spent up to now is       40.2 secs

     Computing kpt #:     6
     total cpu time spent up to now is       46.0 secs

     Computing kpt #:     7
     total cpu time spent up to now is       52.2 secs

     Computing kpt #:     8
     total cpu time spent up to now is       60.2 secs

     Computing kpt #:     9
     total cpu time spent up to now is       66.1 secs

     Computing kpt #:    10
     total cpu time spent up to now is       73.2 secs

     Computing kpt #:    11
     total cpu time spent up to now is       80.8 secs

     Computing kpt #:    12
     total cpu time spent up to now is       87.5 secs

     Computing kpt #:    13
     total cpu time spent up to now is       95.2 secs

     Computing kpt #:    14
     total cpu time spent up to now is      103.5 secs

     Computing kpt #:    15
     total cpu time spent up to now is      111.2 secs

     Computing kpt #:    16
     total cpu time spent up to now is      118.3 secs

     Computing kpt #:    17
     total cpu time spent up to now is      125.5 secs

     Computing kpt #:    18
     total cpu time spent up to now is      131.9 secs

     Computing kpt #:    19
     total cpu time spent up to now is      138.3 secs

     Computing kpt #:    20
     total cpu time spent up to now is      146.0 secs

     Computing kpt #:    21
     total cpu time spent up to now is      152.5 secs

     Computing kpt #:    22
     total cpu time spent up to now is      160.6 secs

     Computing kpt #:    23
     total cpu time spent up to now is      169.7 secs

     Computing kpt #:    24
     c_bands:  2 eigenvalues not converged
     total cpu time spent up to now is      181.7 secs

     Computing kpt #:    25
     total cpu time spent up to now is      189.3 secs

     Computing kpt #:    26
     total cpu time spent up to now is      196.7 secs

     Computing kpt #:    27
     total cpu time spent up to now is      204.2 secs

     Computing kpt #:    28
     total cpu time spent up to now is      211.4 secs

     Computing kpt #:    29
     total cpu time spent up to now is      217.5 secs

     Computing kpt #:    30
     c_bands:  1 eigenvalues not converged
     total cpu time spent up to now is      228.4 secs

     Computing kpt #:    31
     total cpu time spent up to now is      235.4 secs

     Computing kpt #:    32
     total cpu time spent up to now is      241.3 secs

     Computing kpt #:    33
     total cpu time spent up to now is      247.3 secs

     Computing kpt #:    34
     total cpu time spent up to now is      254.3 secs

     Computing kpt #:    35
     total cpu time spent up to now is      261.8 secs

     Computing kpt #:    36
     c_bands:  2 eigenvalues not converged
     total cpu time spent up to now is      273.8 secs

     Computing kpt #:    37
     total cpu time spent up to now is      281.5 secs

     Computing kpt #:    38
     total cpu time spent up to now is      289.1 secs

     Computing kpt #:    39
     total cpu time spent up to now is      297.0 secs

     Computing kpt #:    40
     total cpu time spent up to now is      304.8 secs

     Computing kpt #:    41
     total cpu time spent up to now is      312.9 secs

     Computing kpt #:    42
     total cpu time spent up to now is      321.9 secs

     Computing kpt #:    43
     total cpu time spent up to now is      328.2 secs

     Computing kpt #:    44
     total cpu time spent up to now is      334.4 secs

     Computing kpt #:    45
     total cpu time spent up to now is      340.2 secs

     Computing kpt #:    46
     total cpu time spent up to now is      346.4 secs

     Computing kpt #:    47
     total cpu time spent up to now is      354.3 secs

     Computing kpt #:    48
     total cpu time spent up to now is      361.9 secs

     Computing kpt #:    49
     total cpu time spent up to now is      368.5 secs

     Computing kpt #:    50
     total cpu time spent up to now is      375.3 secs

     Computing kpt #:    51
     total cpu time spent up to now is      381.9 secs

     Computing kpt #:    52
     total cpu time spent up to now is      387.9 secs

     Computing kpt #:    53
     total cpu time spent up to now is      396.6 secs

     Computing kpt #:    54
     total cpu time spent up to now is      403.6 secs

     Computing kpt #:    55
     total cpu time spent up to now is      410.4 secs

     Computing kpt #:    56
     total cpu time spent up to now is      417.0 secs

     Computing kpt #:    57
     total cpu time spent up to now is      423.8 secs

     Computing kpt #:    58
     total cpu time spent up to now is      430.5 secs

     Computing kpt #:    59
     total cpu time spent up to now is      437.2 secs

     Computing kpt #:    60
     total cpu time spent up to now is      443.5 secs

     Computing kpt #:    61
     total cpu time spent up to now is      450.7 secs

     Computing kpt #:    62
     total cpu time spent up to now is      457.8 secs

     Computing kpt #:    63
     total cpu time spent up to now is      464.2 secs

     Computing kpt #:    64
     total cpu time spent up to now is      471.5 secs

     Computing kpt #:    65
     total cpu time spent up to now is      477.9 secs

     Computing kpt #:    66
     total cpu time spent up to now is      484.1 secs

     Computing kpt #:    67
     total cpu time spent up to now is      490.2 secs

     Computing kpt #:    68
     total cpu time spent up to now is      496.4 secs

     Computing kpt #:    69
     total cpu time spent up to now is      502.3 secs

     Computing kpt #:    70
     total cpu time spent up to now is      508.3 secs

     Computing kpt #:    71
     total cpu time spent up to now is      514.7 secs

     Computing kpt #:    72
     total cpu time spent up to now is      520.8 secs

     Computing kpt #:    73
     total cpu time spent up to now is      526.5 secs

     Computing kpt #:    74
     total cpu time spent up to now is      535.7 secs

     Computing kpt #:    75
     total cpu time spent up to now is      543.7 secs

     Computing kpt #:    76
     total cpu time spent up to now is      551.4 secs

     Computing kpt #:    77
     total cpu time spent up to now is      560.0 secs

     Computing kpt #:    78
     total cpu time spent up to now is      567.6 secs

     Computing kpt #:    79
     total cpu time spent up to now is      573.9 secs

     Computing kpt #:    80
     total cpu time spent up to now is      581.3 secs

     Computing kpt #:    81
     total cpu time spent up to now is      591.4 secs

     Computing kpt #:    82
     total cpu time spent up to now is      599.4 secs

     Computing kpt #:    83
     total cpu time spent up to now is      606.9 secs

     Computing kpt #:    84
     total cpu time spent up to now is      614.0 secs

     Computing kpt #:    85
     total cpu time spent up to now is      621.2 secs

     Computing kpt #:    86
     total cpu time spent up to now is      628.4 secs

     Computing kpt #:    87
     total cpu time spent up to now is      634.6 secs

     Computing kpt #:    88
     total cpu time spent up to now is      641.0 secs

     Computing kpt #:    89
     total cpu time spent up to now is      647.5 secs

     Computing kpt #:    90
     total cpu time spent up to now is      654.8 secs

     Computing kpt #:    91
     total cpu time spent up to now is      662.9 secs

     Computing kpt #:    92
     total cpu time spent up to now is      670.5 secs

     Computing kpt #:    93
     total cpu time spent up to now is      678.8 secs

     Computing kpt #:    94
     total cpu time spent up to now is      686.5 secs

     Computing kpt #:    95
     total cpu time spent up to now is      693.0 secs

     Computing kpt #:    96
     total cpu time spent up to now is      700.1 secs

     Computing kpt #:    97
     total cpu time spent up to now is      706.7 secs

     Computing kpt #:    98
     total cpu time spent up to now is      714.1 secs

     Computing kpt #:    99
     total cpu time spent up to now is      720.9 secs

     Computing kpt #:   100
     total cpu time spent up to now is      728.2 secs

     Computing kpt #:   101
     total cpu time spent up to now is      735.0 secs

     Computing kpt #:   102
     total cpu time spent up to now is      743.2 secs

     Computing kpt #:   103
     total cpu time spent up to now is      750.5 secs

     Computing kpt #:   104
     total cpu time spent up to now is      758.0 secs

     Computing kpt #:   105
     total cpu time spent up to now is      764.9 secs

     Computing kpt #:   106
     total cpu time spent up to now is      772.3 secs

     Computing kpt #:   107
     total cpu time spent up to now is      778.3 secs

     Computing kpt #:   108
     total cpu time spent up to now is      784.7 secs

     Computing kpt #:   109
     total cpu time spent up to now is      791.2 secs

     Computing kpt #:   110
     total cpu time spent up to now is      797.5 secs

     Computing kpt #:   111
     total cpu time spent up to now is      804.1 secs

     Computing kpt #:   112
     total cpu time spent up to now is      811.1 secs

     Computing kpt #:   113
     total cpu time spent up to now is      818.8 secs

     Computing kpt #:   114
     total cpu time spent up to now is      825.1 secs

     Computing kpt #:   115
     total cpu time spent up to now is      831.4 secs

     Computing kpt #:   116
     total cpu time spent up to now is      839.0 secs

     Computing kpt #:   117
     total cpu time spent up to now is      845.3 secs

     Computing kpt #:   118
     total cpu time spent up to now is      852.5 secs

     Computing kpt #:   119
     total cpu time spent up to now is      859.3 secs

     Computing kpt #:   120
     total cpu time spent up to now is      866.7 secs

     Computing kpt #:   121
     total cpu time spent up to now is      874.6 secs

     Computing kpt #:   122
     c_bands:  1 eigenvalues not converged
     total cpu time spent up to now is      885.9 secs

     Computing kpt #:   123
     total cpu time spent up to now is      893.9 secs

     Computing kpt #:   124
     total cpu time spent up to now is      900.3 secs

     Computing kpt #:   125
     total cpu time spent up to now is      907.7 secs

     Computing kpt #:   126
     total cpu time spent up to now is      914.5 secs

     Computing kpt #:   127
     total cpu time spent up to now is      920.8 secs

     Computing kpt #:   128
     total cpu time spent up to now is      928.3 secs

     Computing kpt #:   129
     total cpu time spent up to now is      934.6 secs

     Computing kpt #:   130
     total cpu time spent up to now is      943.4 secs

     Computing kpt #:   131
     total cpu time spent up to now is      951.8 secs

     Computing kpt #:   132
     total cpu time spent up to now is      959.6 secs

     Computing kpt #:   133
     total cpu time spent up to now is      966.5 secs

     Computing kpt #:   134
     total cpu time spent up to now is      974.1 secs

     Computing kpt #:   135
     total cpu time spent up to now is      980.7 secs

     Computing kpt #:   136
     total cpu time spent up to now is      988.0 secs

     Computing kpt #:   137
     total cpu time spent up to now is      995.7 secs

     Computing kpt #:   138
     total cpu time spent up to now is     1003.8 secs

     Computing kpt #:   139
     total cpu time spent up to now is     1010.5 secs

     Computing kpt #:   140
     total cpu time spent up to now is     1018.8 secs

     Computing kpt #:   141
     total cpu time spent up to now is     1026.4 secs

     Computing kpt #:   142
     total cpu time spent up to now is     1035.4 secs

     Computing kpt #:   143
     total cpu time spent up to now is     1043.4 secs

     Computing kpt #:   144
     total cpu time spent up to now is     1050.8 secs

     Computing kpt #:   145
     total cpu time spent up to now is     1058.5 secs

     ethr =  1.56E-13,  avg # of iterations = 46.9

     total cpu time spent up to now is     1059.5 secs

     End of band structure calculation

          k = 0.0000 0.0000 0.0000 ( 11191 PWs)   bands (ev):

    -5.8350  -3.5578  -3.5578  -3.5578  -3.5578  -1.7688  -1.7688  -1.7688
    -1.7688  -1.7688  -1.7688  -0.8906  -0.8906  -0.8906  -0.8906   3.1841
     3.1841   3.1841   3.1841   3.1841   3.1841   4.8006   4.8006   4.8006
     4.8006   4.8006   4.8006   4.8006   4.8006   5.9812   5.9812   5.9812
     6.7353   6.7353   6.7353   6.7353   6.7353   6.7353   7.4432   7.4432
     7.4432   7.4432   8.5353   8.5353   8.5353   9.0980   9.3321   9.3321
     9.3321   9.3321   9.3321   9.3321   9.3321   9.3321  13.6881  13.6881
    13.6881  13.6881  13.6993  13.6993  13.8615  15.9020  15.9020  15.9020
    15.9020

     occupation numbers 
     1.0000   1.0000   1.0000   1.0000   1.0000   1.0000   1.0000   1.0000
     1.0000   1.0000   1.0000   1.0000   1.0000   1.0000   1.0000   1.0000
     1.0000   1.0000   1.0000   1.0000   1.0000   1.0000   1.0000   1.0000
     1.0000   1.0000   1.0000   1.0000   1.0000   1.0000   1.0000   1.0000
     0.0000   0.0000   0.0000   0.0000   0.0000   0.0000   0.0000   0.0000
     0.0000   0.0000   0.0000   0.0000   0.0000   0.0000   0.0000   0.0000
     0.0000   0.0000   0.0000   0.0000   0.0000   0.0000   0.0000   0.0000
     0.0000   0.0000   0.0000   0.0000   0.0000   0.0000   0.0000   0.0000
     0.0000

          k = 0.0439 0.0439-0.0439 ( 11236 PWs)   bands (ev):

    -5.8224  -3.6106  -3.5526  -3.5526  -3.5526  -2.0002  -2.0002  -2.0002
    -1.5270  -1.5270  -1.5270  -0.8763  -0.8763  -0.8763  -0.8140   3.1322
     3.1322   3.1322   3.1946   3.1946   3.1946   4.7013   4.7013   4.7013
     4.7746   4.7746   4.7746   4.8075   4.8075   5.8307   5.9596   5.9596
     6.7197   6.7197   6.7197   6.8538   6.8538   6.8538   7.4513   7.5427
     7.5427   7.5427   8.5663   8.5669   8.5669   9.1956   9.3087   9.3087
     9.3087   9.3397   9.3397   9.3826   9.3826   9.3826  13.6549  13.6549
    13.6998  13.7366  13.7366  13.7366  13.9176  15.7251  15.7251  15.7251
    15.7564

     occupation numbers 
     1.0000   1.0000   1.0000   1.0000   1.0000   1.0000   1.0000   1.0000
     1.0000   1.0000   1.0000   1.0000   1.0000   1.0000   1.0000   1.0000
     1.0000   1.0000   1.0000   1.0000   1.0000   1.0000   1.0000   1.0000
     1.0000   1.0000   1.0000   1.0000   1.0000   1.0000   1.0000   1.0000
     0.0000   0.0000   0.0000   0.0000   0.0000   0.0000   0.0000   0.0000
     0.0000   0.0000   0.0000   0.0000   0.0000   0.0000   0.0000   0.0000
     0.0000   0.0000   0.0000   0.0000   0.0000   0.0000   0.0000   0.0000
     0.0000   0.0000   0.0000   0.0000   0.0000   0.0000   0.0000   0.0000
     0.0000

          k = 0.0878 0.0878-0.0878 ( 11266 PWs)   bands (ev):

    -5.7847  -3.7529  -3.5368  -3.5368  -3.5368  -2.2182  -2.2182  -2.2182
    -1.2796  -1.2796  -1.2796  -0.8343  -0.8343  -0.8343  -0.6004   2.9940
     2.9940   2.9940   3.2261   3.2261   3.2261   4.4448   4.4448   4.4448
     4.7002   4.7002   4.7002   4.8283   4.8283   5.4488   5.8986   5.8986
     6.7542   6.7542   6.7542   7.1124   7.1124   7.1124   7.4755   7.7854
     7.7854   7.7854   8.5737   8.6566   8.6566   9.2616   9.2616   9.2616
     9.3617   9.3617   9.5067   9.5303   9.5303   9.5303  13.5373  13.5373
    13.7329  13.8417  13.8417  13.8417  14.0803  15.2925  15.2925  15.2925
    15.3214

     occupation numbers 
     1.0000   1.0000   1.0000   1.0000   1.0000   1.0000   1.0000   1.0000
     1.0000   1.0000   1.0000   1.0000   1.0000   1.0000   1.0000   1.0000
     1.0000   1.0000   1.0000   1.0000   1.0000   1.0000   1.0000   1.0000
     1.0000   1.0000   1.0000   1.0000   1.0000   1.0000   1.0000   1.0000
     0.0000   0.0000   0.0000   0.0000   0.0000   0.0000   0.0000   0.0000
     0.0000   0.0000   0.0000   0.0000   0.0000   0.0000   0.0000   0.0000
     0.0000   0.0000   0.0000   0.0000   0.0000   0.0000   0.0000   0.0000
     0.0000   0.0000   0.0000   0.0000   0.0000   0.0000   0.0000   0.0000
     0.0000

          k = 0.1316 0.1316-0.1316 ( 11284 PWs)   bands (ev):

    -5.7220  -3.9514  -3.5099  -3.5099  -3.5099  -2.4208  -2.4208  -2.4208
    -1.0341  -1.0341  -1.0341  -0.7673  -0.7673  -0.7673  -0.2833   2.8093
     2.8093   2.8093   3.2782   3.2782   3.2782   4.1042   4.1042   4.1042
     4.5871   4.5871   4.5871   4.8630   4.8630   4.9455   5.8077   5.8077
     6.8204   6.8204   6.8204   7.4941   7.4941   7.4941   7.5156   8.0383
     8.0383   8.0383   8.5160   8.7908   8.7908   9.2719   9.2719   9.2719
     9.3952   9.3952   9.7656   9.7656   9.7656   9.9701  13.3819  13.3819
    13.7801  13.7885  13.7885  13.7885  14.3320  14.7437  14.7437  14.7437
    14.8209

     occupation numbers 
     1.0000   1.0000   1.0000   1.0000   1.0000   1.0000   1.0000   1.0000
     1.0000   1.0000   1.0000   1.0000   1.0000   1.0000   1.0000   1.0000
     1.0000   1.0000   1.0000   1.0000   1.0000   1.0000   1.0000   1.0000
     1.0000   1.0000   1.0000   1.0000   1.0000   1.0000   1.0000   1.0000
     0.0000   0.0000   0.0000   0.0000   0.0000   0.0000   0.0000   0.0000
     0.0000   0.0000   0.0000   0.0000   0.0000   0.0000   0.0000   0.0000
     0.0000   0.0000   0.0000   0.0000   0.0000   0.0000   0.0000   0.0000
     0.0000   0.0000   0.0000   0.0000   0.0000   0.0000   0.0000   0.0000
     0.0000

          k = 0.1755 0.1755-0.1755 ( 11278 PWs)   bands (ev):

    -5.6346  -4.1767  -3.4708  -3.4708  -3.4708  -2.6065  -2.6065  -2.6065
    -0.8015  -0.8015  -0.8015  -0.6801  -0.6801  -0.6801   0.1073   2.6207
     2.6207   2.6207   3.3505   3.3505   3.3505   3.7331   3.7331   3.7331
     4.3879   4.4471   4.4471   4.4471   4.9114   4.9114   5.6982   5.6982
     6.9143   6.9143   6.9143   7.5713   7.9686   7.9686   7.9686   8.1426
     8.1426   8.1426   8.4192   8.9512   8.9512   9.4351   9.4351   9.4702
     9.4702   9.4702  10.0762  10.0762  10.0762  10.5026  13.2267  13.2267
    13.2866  13.2866  13.2866  13.8212  14.1538  14.1538  14.1538  14.2067
    14.2067

     occupation numbers 
     1.0000   1.0000   1.0000   1.0000   1.0000   1.0000   1.0000   1.0000
     1.0000   1.0000   1.0000   1.0000   1.0000   1.0000   1.0000   1.0000
     1.0000   1.0000   1.0000   1.0000   1.0000   1.0000   1.0000   1.0000
     1.0000   1.0000   1.0000   1.0000   1.0000   1.0000   1.0000   1.0000
     0.0000   0.0000   0.0000   0.0000   0.0000   0.0000   0.0000   0.0000
     0.0000   0.0000   0.0000   0.0000   0.0000   0.0000   0.0000   0.0000
     0.0000   0.0000   0.0000   0.0000   0.0000   0.0000   0.0000   0.0000
     0.0000   0.0000   0.0000   0.0000   0.0000   0.0000   0.0000   0.0000
     0.0000

          k = 0.2194 0.2194-0.2194 ( 11279 PWs)   bands (ev):

    -5.5230  -4.4090  -3.4187  -3.4187  -3.4187  -2.7748  -2.7748  -2.7748
    -0.5981  -0.5981  -0.5981  -0.5803  -0.5803  -0.5803   0.5510   2.4671
     2.4671   2.4671   3.3651   3.3651   3.3651   3.4420   3.4420   3.4420
     3.8093   4.2917   4.2917   4.2917   4.9733   4.9733   5.5797   5.5797
     7.0340   7.0340   7.0340   7.6421   8.0691   8.0691   8.0691   8.3027
     8.5123   8.5123   8.5123   9.1179   9.1179   9.4739   9.4739   9.8766
     9.8766   9.8766  10.4503  10.4503  10.4503  11.0611  12.5890  12.5890
    12.5890  13.1042  13.1042  13.5568  13.5568  13.5568  13.5621  13.5621
    13.5621

     occupation numbers 
     1.0000   1.0000   1.0000   1.0000   1.0000   1.0000   1.0000   1.0000
     1.0000   1.0000   1.0000   1.0000   1.0000   1.0000   1.0000   1.0000
     1.0000   1.0000   1.0000   1.0000   1.0000   1.0000   1.0000   1.0000
     1.0000   1.0000   1.0000   1.0000   1.0000   1.0000   1.0000   1.0000
     0.0000   0.0000   0.0000   0.0000   0.0000   0.0000   0.0000   0.0000
     0.0000   0.0000   0.0000   0.0000   0.0000   0.0000   0.0000   0.0000
     0.0000   0.0000   0.0000   0.0000   0.0000   0.0000   0.0000   0.0000
     0.0000   0.0000   0.0000   0.0000   0.0000   0.0000   0.0000   0.0000
     0.0000

          k = 0.2633 0.2633-0.2633 ( 11270 PWs)   bands (ev):

    -5.3878  -4.6365  -3.3523  -3.3523  -3.3523  -2.9252  -2.9252  -2.9252
    -0.4794  -0.4794  -0.4794  -0.4444  -0.4444  -0.4444   1.0350   2.3832
     2.3832   2.3832   3.0242   3.0242   3.0242   3.2274   3.5518   3.5518
     3.5518   4.1305   4.1305   4.1305   5.0483   5.0483   5.4597   5.4597
     7.1776   7.1776   7.1776   7.7273   7.9074   7.9074   7.9074   8.1785
     9.1090   9.1090   9.1090   9.2708   9.2708   9.5011   9.5011  10.3984
    10.3984  10.3984  10.8775  10.8775  10.8775  11.6251  11.8629  11.8629
    11.8629  12.9083  12.9083  12.9083  12.9694  12.9694  12.9694  13.0421
    13.0421

     occupation numbers 
     1.0000   1.0000   1.0000   1.0000   1.0000   1.0000   1.0000   1.0000
     1.0000   1.0000   1.0000   1.0000   1.0000   1.0000   1.0000   1.0000
     1.0000   1.0000   1.0000   1.0000   1.0000   1.0000   1.0000   1.0000
     1.0000   1.0000   1.0000   1.0000   1.0000   1.0000   1.0000   1.0000
     0.0000   0.0000   0.0000   0.0000   0.0000   0.0000   0.0000   0.0000
     0.0000   0.0000   0.0000   0.0000   0.0000   0.0000   0.0000   0.0000
     0.0000   0.0000   0.0000   0.0000   0.0000   0.0000   0.0000   0.0000
     0.0000   0.0000   0.0000   0.0000   0.0000   0.0000   0.0000   0.0000
     0.0000

          k = 0.3072 0.3072-0.3072 ( 11264 PWs)   bands (ev):

    -5.2299  -4.8518  -3.2706  -3.2706  -3.2706  -3.0577  -3.0577  -3.0577
    -0.3940  -0.3940  -0.3940  -0.3587  -0.3587  -0.3587   1.5506   2.3963
     2.3963   2.3963   2.6524   2.7333   2.7333   2.7333   3.6781   3.6781
     3.6781   3.9710   3.9710   3.9710   5.1358   5.1358   5.3435   5.3435
     7.3425   7.3425   7.3425   7.7171   7.7171   7.7171   7.8257   8.0544
     9.3920   9.3920   9.5041   9.5041   9.7473   9.7473   9.7473  10.9273
    10.9273  10.9273  11.1964  11.1964  11.1964  11.3495  11.3495  11.3495
    12.1830  12.2582  12.2582  12.2582  12.4013  12.4013  12.4013  13.0619
    13.0619

     occupation numbers 
     1.0000   1.0000   1.0000   1.0000   1.0000   1.0000   1.0000   1.0000
     1.0000   1.0000   1.0000   1.0000   1.0000   1.0000   1.0000   1.0000
     1.0000   1.0000   1.0000   1.0000   1.0000   1.0000   1.0000   1.0000
     1.0000   1.0000   1.0000   1.0000   1.0000   1.0000   1.0000   1.0000
     0.0000   0.0000   0.0000   0.0000   0.0000   0.0000   0.0000   0.0000
     0.0000   0.0000   0.0000   0.0000   0.0000   0.0000   0.0000   0.0000
     0.0000   0.0000   0.0000   0.0000   0.0000   0.0000   0.0000   0.0000
     0.0000   0.0000   0.0000   0.0000   0.0000   0.0000   0.0000   0.0000
     0.0000

          k =-0.3510-0.3510 0.3510 ( 11276 PWs)   bands (ev):

    -5.0506  -5.0506  -3.1727  -3.1727  -3.1727  -3.1727  -3.1727  -3.1727
    -0.3462  -0.3462  -0.3462  -0.3462  -0.3462  -0.3462   2.0916   2.0916
     2.5165   2.5165   2.5165   2.5165   2.5165   2.5165   3.8189   3.8189
     3.8189   3.8189   3.8189   3.8189   5.2347   5.2347   5.2347   5.2347
     7.5246   7.5246   7.5246   7.5246   7.5246   7.5246   7.9356   7.9356
     9.4703   9.4703   9.4703   9.4703  10.4164  10.4164  10.4164  10.4164
    10.4164  10.4164  11.6238  11.6238  11.6238  11.6238  11.6238  11.6238
    11.8594  11.8594  11.8594  11.8594  11.8594  11.8594  12.7229  12.7229
    13.1774

     occupation numbers 
     1.0000   1.0000   1.0000   1.0000   1.0000   1.0000   1.0000   1.0000
     1.0000   1.0000   1.0000   1.0000   1.0000   1.0000   1.0000   1.0000
     1.0000   1.0000   1.0000   1.0000   1.0000   1.0000   1.0000   1.0000
     1.0000   1.0000   1.0000   1.0000   1.0000   1.0000   1.0000   1.0000
     0.0000   0.0000   0.0000   0.0000   0.0000   0.0000   0.0000   0.0000
     0.0000   0.0000   0.0000   0.0000   0.0000   0.0000   0.0000   0.0000
     0.0000   0.0000   0.0000   0.0000   0.0000   0.0000   0.0000   0.0000
     0.0000   0.0000   0.0000   0.0000   0.0000   0.0000   0.0000   0.0000
     0.0000

          k = 0.0878 0.0000 0.0000 ( 11254 PWs)   bands (ev):

    -5.8182  -3.5704  -3.5704  -3.5704  -3.5704  -2.2329  -1.7634  -1.7634
    -1.7634  -1.7634  -1.2845  -0.8505  -0.8505  -0.8505  -0.8505   3.1350
     3.1350   3.1350   3.1350   3.1993   3.1993   4.6856   4.6856   4.6856
     4.6856   4.7955   4.7955   4.7955   4.7955   5.8618   5.9109   5.9109
     6.6457   6.8269   6.8269   6.8269   6.8269   6.8702   7.5450   7.5450
     7.5450   7.5450   8.4940   8.6264   8.6264   9.2147   9.3299   9.3299
     9.3299   9.3299   9.3662   9.3662   9.3662   9.3662  13.5646  13.7179
    13.7412  13.7412  13.7412  13.7412  13.9362  15.6032  15.6032  15.7464
    15.7464

     occupation numbers 
     1.0000   1.0000   1.0000   1.0000   1.0000   1.0000   1.0000   1.0000
     1.0000   1.0000   1.0000   1.0000   1.0000   1.0000   1.0000   1.0000
     1.0000   1.0000   1.0000   1.0000   1.0000   1.0000   1.0000   1.0000
     1.0000   1.0000   1.0000   1.0000   1.0000   1.0000   1.0000   1.0000
     0.0000   0.0000   0.0000   0.0000   0.0000   0.0000   0.0000   0.0000
     0.0000   0.0000   0.0000   0.0000   0.0000   0.0000   0.0000   0.0000
     0.0000   0.0000   0.0000   0.0000   0.0000   0.0000   0.0000   0.0000
     0.0000   0.0000   0.0000   0.0000   0.0000   0.0000   0.0000   0.0000
     0.0000

          k = 0.1316 0.0439-0.0439 ( 11260 PWs)   bands (ev):

    -5.7888  -3.6864  -3.5771  -3.5771  -3.5191  -2.4524  -1.9879  -1.9879
    -1.5187  -1.5187  -1.0353  -0.8598  -0.7974  -0.7974  -0.6792   2.9878
     2.9878   3.1593   3.1593   3.1635   3.2249   4.4089   4.5102   4.5102
     4.6843   4.7336   4.7494   4.7494   4.8303   5.5643   5.8272   5.8904
     6.6614   6.8435   6.8435   7.0026   7.0809   7.0809   7.5632   7.7192
     7.7192   7.7819   8.4881   8.6925   8.7400   9.2817   9.2817   9.2919
     9.3645   9.3659   9.4378   9.4808   9.4808   9.4914  13.4083  13.6939
    13.7605  13.8198  13.8198  13.8666  14.0632  15.2622  15.2769  15.3068
    15.3068

     occupation numbers 
     1.0000   1.0000   1.0000   1.0000   1.0000   1.0000   1.0000   1.0000
     1.0000   1.0000   1.0000   1.0000   1.0000   1.0000   1.0000   1.0000
     1.0000   1.0000   1.0000   1.0000   1.0000   1.0000   1.0000   1.0000
     1.0000   1.0000   1.0000   1.0000   1.0000   1.0000   1.0000   1.0000
     0.0000   0.0000   0.0000   0.0000   0.0000   0.0000   0.0000   0.0000
     0.0000   0.0000   0.0000   0.0000   0.0000   0.0000   0.0000   0.0000
     0.0000   0.0000   0.0000   0.0000   0.0000   0.0000   0.0000   0.0000
     0.0000   0.0000   0.0000   0.0000   0.0000   0.0000   0.0000   0.0000
     0.0000

          k = 0.1755 0.0878-0.0878 ( 11260 PWs)   bands (ev):

    -5.7345  -3.8700  -3.5716  -3.5716  -3.4571  -2.6560  -2.1983  -2.1983
    -1.2724  -1.2724  -0.8429  -0.7860  -0.7194  -0.7194  -0.3930   2.7912
     2.7912   3.0454   3.2050   3.2050   3.2713   4.0503   4.2315   4.2315
     4.6299   4.6439   4.6439   4.6978   4.8786   5.1007   5.7196   5.8410
     6.7431   6.8930   6.8930   7.2576   7.4574   7.4574   7.5973   7.9802
     7.9802   8.0364   8.5245   8.7025   8.8931   9.2260   9.2260   9.2989
     9.3755   9.4146   9.7018   9.7018   9.7072   9.8487  13.2219  13.6027
    13.7841  13.8121  13.8121  13.9845  14.2862  14.7157  14.7157  14.7781
    14.8047

     occupation numbers 
     1.0000   1.0000   1.0000   1.0000   1.0000   1.0000   1.0000   1.0000
     1.0000   1.0000   1.0000   1.0000   1.0000   1.0000   1.0000   1.0000
     1.0000   1.0000   1.0000   1.0000   1.0000   1.0000   1.0000   1.0000
     1.0000   1.0000   1.0000   1.0000   1.0000   1.0000   1.0000   1.0000
     0.0000   0.0000   0.0000   0.0000   0.0000   0.0000   0.0000   0.0000
     0.0000   0.0000   0.0000   0.0000   0.0000   0.0000   0.0000   0.0000
     0.0000   0.0000   0.0000   0.0000   0.0000   0.0000   0.0000   0.0000
     0.0000   0.0000   0.0000   0.0000   0.0000   0.0000   0.0000   0.0000
     0.0000

          k = 0.2194 0.1316-0.1316 ( 11283 PWs)   bands (ev):

    -5.6553  -4.0891  -3.5528  -3.5528  -3.3850  -2.8420  -2.3931  -2.3931
    -1.0341  -1.0341  -0.8028  -0.6210  -0.6210  -0.5465  -0.0245   2.5863
     2.5863   2.8873   3.2715   3.2715   3.3381   3.6621   3.8978   3.8978
     4.4962   4.5036   4.5036   4.5635   4.7262   4.9400   5.5988   5.7578
     6.8536   6.9715   6.9715   7.6366   7.6470   7.9260   7.9260   8.1573
     8.1791   8.1791   8.5076   8.7624   9.0685   9.2823   9.2823   9.3952
     9.4713   9.4751  10.0017  10.0096  10.0096  10.3509  13.0416  13.3773
    13.3773  13.4825  13.7670  13.7810  14.0854  14.0854  14.2252  14.2366
    14.3776

     occupation numbers 
     1.0000   1.0000   1.0000   1.0000   1.0000   1.0000   1.0000   1.0000
     1.0000   1.0000   1.0000   1.0000   1.0000   1.0000   1.0000   1.0000
     1.0000   1.0000   1.0000   1.0000   1.0000   1.0000   1.0000   1.0000
     1.0000   1.0000   1.0000   1.0000   1.0000   1.0000   1.0000   1.0000
     0.0000   0.0000   0.0000   0.0000   0.0000   0.0000   0.0000   0.0000
     0.0000   0.0000   0.0000   0.0000   0.0000   0.0000   0.0000   0.0000
     0.0000   0.0000   0.0000   0.0000   0.0000   0.0000   0.0000   0.0000
     0.0000   0.0000   0.0000   0.0000   0.0000   0.0000   0.0000   0.0000
     0.0000

          k = 0.2633 0.1755-0.1755 ( 11296 PWs)   bands (ev):

    -5.5518  -4.3207  -3.5195  -3.5195  -3.3025  -3.0094  -2.5716  -2.5716
    -0.8175  -0.8175  -0.7454  -0.5087  -0.5087  -0.3318   0.4027   2.4097
     2.4097   2.7355   3.2765   3.3582   3.3582   3.4244   3.5487   3.5487
     3.9947   4.3435   4.3435   4.3441   4.7696   5.0139   5.4738   5.6525
     6.9841   7.0770   7.0770   7.7118   8.1010   8.1144   8.1869   8.1869
     8.4185   8.4632   8.4632   8.8963   9.2474   9.4168   9.5293   9.5619
     9.5619   9.8562  10.3628  10.3912  10.3912  10.8819  12.6911  12.6911
    12.9012  13.1468  13.3732  13.4487  13.4487  13.6167  13.6486  13.6786
    13.9150

     occupation numbers 
     1.0000   1.0000   1.0000   1.0000   1.0000   1.0000   1.0000   1.0000
     1.0000   1.0000   1.0000   1.0000   1.0000   1.0000   1.0000   1.0000
     1.0000   1.0000   1.0000   1.0000   1.0000   1.0000   1.0000   1.0000
     1.0000   1.0000   1.0000   1.0000   1.0000   1.0000   1.0000   1.0000
     0.0000   0.0000   0.0000   0.0000   0.0000   0.0000   0.0000   0.0000
     0.0000   0.0000   0.0000   0.0000   0.0000   0.0000   0.0000   0.0000
     0.0000   0.0000   0.0000   0.0000   0.0000   0.0000   0.0000   0.0000
     0.0000   0.0000   0.0000   0.0000   0.0000   0.0000   0.0000   0.0000
     0.0000

          k = 0.3072 0.2194-0.2194 ( 11271 PWs)   bands (ev):

    -5.4244  -4.5508  -3.4706  -3.4706  -3.2093  -3.1573  -2.7335  -2.7335
    -0.6803  -0.6411  -0.6411  -0.3928  -0.3928  -0.1623   0.8736   2.2944
     2.2944   2.6326   2.9165   3.2130   3.2130   3.4163   3.4641   3.4641
     3.5292   4.1750   4.1750   4.1839   4.8281   5.0995   5.3509   5.5354
     7.1344   7.2074   7.2074   7.7911   7.9490   8.0553   8.0553   8.3048
     8.6653   9.0482   9.0532   9.0532   9.4107   9.4310   9.5788  10.0070
    10.0070  10.3593  10.7798  10.8352  10.8352  11.4052  11.9614  11.9614
    12.4331  12.8188  12.8188  12.8360  12.9736  13.0723  13.3088  13.4230
    13.5156

     occupation numbers 
     1.0000   1.0000   1.0000   1.0000   1.0000   1.0000   1.0000   1.0000
     1.0000   1.0000   1.0000   1.0000   1.0000   1.0000   1.0000   1.0000
     1.0000   1.0000   1.0000   1.0000   1.0000   1.0000   1.0000   1.0000
     1.0000   1.0000   1.0000   1.0000   1.0000   1.0000   1.0000   1.0000
     0.0000   0.0000   0.0000   0.0000   0.0000   0.0000   0.0000   0.0000
     0.0000   0.0000   0.0000   0.0000   0.0000   0.0000   0.0000   0.0000
     0.0000   0.0000   0.0000   0.0000   0.0000   0.0000   0.0000   0.0000
     0.0000   0.0000   0.0000   0.0000   0.0000   0.0000   0.0000   0.0000
     0.0000

          k = 0.3510 0.2633-0.2633 ( 11278 PWs)   bands (ev):

    -5.2739  -4.7708  -3.4050  -3.4050  -3.2856  -3.1046  -2.8787  -2.8787
    -0.6219  -0.5242  -0.5242  -0.2880  -0.2880  -0.0600   1.3784   2.2686
     2.2686   2.6031   2.6140   2.8409   2.9149   2.9149   3.5879   3.5879
     3.6512   4.0066   4.0066   4.0236   4.9013   5.1959   5.2349   5.4148
     7.3038   7.3605   7.3605   7.7638   7.8723   7.8723   7.8839   8.1848
     9.1866   9.2715   9.4257   9.5411   9.6069   9.6844   9.6844  10.5235
    10.5235  10.9108  11.2428  11.2428  11.2439  11.3314  11.3314  11.7265
    11.8844  12.2031  12.2031  12.3246  12.5094  12.8910  12.9618  12.9618
    13.0746

     occupation numbers 
     1.0000   1.0000   1.0000   1.0000   1.0000   1.0000   1.0000   1.0000
     1.0000   1.0000   1.0000   1.0000   1.0000   1.0000   1.0000   1.0000
     1.0000   1.0000   1.0000   1.0000   1.0000   1.0000   1.0000   1.0000
     1.0000   1.0000   1.0000   1.0000   1.0000   1.0000   1.0000   1.0000
     0.0000   0.0000   0.0000   0.0000   0.0000   0.0000   0.0000   0.0000
     0.0000   0.0000   0.0000   0.0000   0.0000   0.0000   0.0000   0.0000
     0.0000   0.0000   0.0000   0.0000   0.0000   0.0000   0.0000   0.0000
     0.0000   0.0000   0.0000   0.0000   0.0000   0.0000   0.0000   0.0000
     0.0000

          k =-0.3072-0.3949 0.3949 ( 11276 PWs)   bands (ev):

    -5.1016  -4.9754  -3.3941  -3.3220  -3.3220  -3.0077  -3.0077  -2.9874
    -0.5902  -0.4770  -0.4770  -0.2149  -0.2149  -0.0364   1.9102   2.2768
     2.3479   2.3479   2.3591   2.6794   2.6794   2.6997   3.7275   3.7275
     3.7882   3.8446   3.8446   3.8691   4.9887   5.1288   5.2961   5.3018
     7.4896   7.5329   7.5329   7.5739   7.6778   7.6778   7.9885   8.0669
     9.2919   9.3887   9.5995   9.6260   9.9207  10.3454  10.3454  10.5045
    10.5045  10.9381  11.1187  11.1187  11.5948  11.6097  11.6097  11.6820
    11.7481  11.8703  11.8703  11.9688  12.2780  12.3639  12.3639  12.6840
    12.9596

     occupation numbers 
     1.0000   1.0000   1.0000   1.0000   1.0000   1.0000   1.0000   1.0000
     1.0000   1.0000   1.0000   1.0000   1.0000   1.0000   1.0000   1.0000
     1.0000   1.0000   1.0000   1.0000   1.0000   1.0000   1.0000   1.0000
     1.0000   1.0000   1.0000   1.0000   1.0000   1.0000   1.0000   1.0000
     0.0000   0.0000   0.0000   0.0000   0.0000   0.0000   0.0000   0.0000
     0.0000   0.0000   0.0000   0.0000   0.0000   0.0000   0.0000   0.0000
     0.0000   0.0000   0.0000   0.0000   0.0000   0.0000   0.0000   0.0000
     0.0000   0.0000   0.0000   0.0000   0.0000   0.0000   0.0000   0.0000
     0.0000

          k =-0.2633-0.3510 0.3510 ( 11256 PWs)   bands (ev):

    -5.1614  -4.9091  -3.4829  -3.2208  -3.2208  -3.1210  -3.1210  -2.8569
    -0.6072  -0.4932  -0.4932  -0.1972  -0.1972  -0.0841   1.7302   2.2068
     2.4631   2.5288   2.5288   2.5315   2.5315   2.8858   3.6936   3.6936
     3.7251   3.8803   3.8803   3.9377   5.0346   5.0894   5.1833   5.4150
     7.3930   7.4891   7.4891   7.6861   7.7191   7.7191   7.9559   8.1028
     9.3116   9.3550   9.5450   9.6624   9.8354   9.8354  10.2753  10.5990
    10.8973  10.8973  11.0617  11.1745  11.1745  11.4569  11.6970  11.6970
    11.7926  11.7926  12.1998  12.2497  12.2862  12.4421  12.4421  12.5995
    12.8255

     occupation numbers 
     1.0000   1.0000   1.0000   1.0000   1.0000   1.0000   1.0000   1.0000
     1.0000   1.0000   1.0000   1.0000   1.0000   1.0000   1.0000   1.0000
     1.0000   1.0000   1.0000   1.0000   1.0000   1.0000   1.0000   1.0000
     1.0000   1.0000   1.0000   1.0000   1.0000   1.0000   1.0000   1.0000
     0.0000   0.0000   0.0000   0.0000   0.0000   0.0000   0.0000   0.0000
     0.0000   0.0000   0.0000   0.0000   0.0000   0.0000   0.0000   0.0000
     0.0000   0.0000   0.0000   0.0000   0.0000   0.0000   0.0000   0.0000
     0.0000   0.0000   0.0000   0.0000   0.0000   0.0000   0.0000   0.0000
     0.0000

          k =-0.2194-0.3072 0.3072 ( 11259 PWs)   bands (ev):

    -5.3266  -4.6989  -3.5526  -3.2195  -3.2195  -3.1009  -3.1009  -2.7122
    -0.6888  -0.5530  -0.5530  -0.2526  -0.2526  -0.1810   1.2067   2.1607
     2.4873   2.4873   2.7922   2.7922   3.0314   3.1516   3.5569   3.5569
     3.5947   4.0426   4.0426   4.0956   4.9538   5.0790   5.2021   5.5326
     7.2286   7.3147   7.3147   7.8550   7.8820   7.9098   7.9098   8.2234
     9.1923   9.1923   9.1948   9.3789   9.4396   9.6187   9.6568  10.4496
    10.4496  10.4506  10.9802  11.2520  11.2520  11.3254  11.7678  11.7937
    11.7937  12.3017  12.3017  12.7904  12.8436  12.8523  12.9170  13.0362
    13.0362

     occupation numbers 
     1.0000   1.0000   1.0000   1.0000   1.0000   1.0000   1.0000   1.0000
     1.0000   1.0000   1.0000   1.0000   1.0000   1.0000   1.0000   1.0000
     1.0000   1.0000   1.0000   1.0000   1.0000   1.0000   1.0000   1.0000
     1.0000   1.0000   1.0000   1.0000   1.0000   1.0000   1.0000   1.0000
     0.0000   0.0000   0.0000   0.0000   0.0000   0.0000   0.0000   0.0000
     0.0000   0.0000   0.0000   0.0000   0.0000   0.0000   0.0000   0.0000
     0.0000   0.0000   0.0000   0.0000   0.0000   0.0000   0.0000   0.0000
     0.0000   0.0000   0.0000   0.0000   0.0000   0.0000   0.0000   0.0000
     0.0000

          k =-0.1755-0.2633 0.2633 ( 11272 PWs)   bands (ev):

    -5.4695  -4.4748  -3.6035  -3.3042  -3.3042  -2.9623  -2.9623  -2.5526
    -0.8354  -0.6339  -0.6339  -0.3818  -0.3818  -0.3033   0.7123   2.2175
     2.5432   2.5432   3.1142   3.1142   3.4369   3.4369   3.4715   3.4803
     3.6081   4.2092   4.2092   4.2570   4.8872   4.9850   5.3244   5.6502
     7.0852   7.1590   7.1590   7.7664   8.0532   8.0860   8.0860   8.3455
     8.5912   8.5912   8.9939   9.0492   9.2903   9.3743   9.6212   9.9110
     9.9490   9.9490  10.5454  10.7615  10.7615  11.2511  12.0527  12.5156
    12.5156  12.8438  12.9205  12.9205  13.2560  13.3121  13.4399  13.4993
    13.6396

     occupation numbers 
     1.0000   1.0000   1.0000   1.0000   1.0000   1.0000   1.0000   1.0000
     1.0000   1.0000   1.0000   1.0000   1.0000   1.0000   1.0000   1.0000
     1.0000   1.0000   1.0000   1.0000   1.0000   1.0000   1.0000   1.0000
     1.0000   1.0000   1.0000   1.0000   1.0000   1.0000   1.0000   1.0000
     0.0000   0.0000   0.0000   0.0000   0.0000   0.0000   0.0000   0.0000
     0.0000   0.0000   0.0000   0.0000   0.0000   0.0000   0.0000   0.0000
     0.0000   0.0000   0.0000   0.0000   0.0000   0.0000   0.0000   0.0000
     0.0000   0.0000   0.0000   0.0000   0.0000   0.0000   0.0000   0.0000
     0.0000

          k =-0.1316-0.2194 0.2194 ( 11279 PWs)   bands (ev):

    -5.5890  -4.2431  -3.6366  -3.3761  -3.3761  -2.8048  -2.8048  -2.3777
    -1.0327  -0.7174  -0.7174  -0.5689  -0.5689  -0.4324   0.2546   2.3575
     2.6750   2.6750   3.3353   3.3353   3.3836   3.4718   3.4718   3.8207
     4.1836   4.3730   4.3730   4.4149   4.8352   4.9025   5.4531   5.7616
     6.9658   7.0244   7.0244   7.6914   8.0446   8.0446   8.1429   8.2042
     8.2042   8.4109   8.4620   8.8930   9.1132   9.3542   9.4812   9.5282
     9.5282   9.5691  10.1607  10.3251  10.3251  10.7194  12.7805  12.9675
    13.2267  13.2267  13.3724  13.5474  13.5474  13.5684  14.0393  14.1554
    14.2339

     occupation numbers 
     1.0000   1.0000   1.0000   1.0000   1.0000   1.0000   1.0000   1.0000
     1.0000   1.0000   1.0000   1.0000   1.0000   1.0000   1.0000   1.0000
     1.0000   1.0000   1.0000   1.0000   1.0000   1.0000   1.0000   1.0000
     1.0000   1.0000   1.0000   1.0000   1.0000   1.0000   1.0000   1.0000
     0.0000   0.0000   0.0000   0.0000   0.0000   0.0000   0.0000   0.0000
     0.0000   0.0000   0.0000   0.0000   0.0000   0.0000   0.0000   0.0000
     0.0000   0.0000   0.0000   0.0000   0.0000   0.0000   0.0000   0.0000
     0.0000   0.0000   0.0000   0.0000   0.0000   0.0000   0.0000   0.0000
     0.0000

          k =-0.0878-0.1755 0.1755 ( 11270 PWs)   bands (ev):

    -5.6845  -4.0137  -3.6527  -3.4363  -3.4363  -2.6289  -2.6289  -2.1875
    -1.2618  -0.7925  -0.7925  -0.7904  -0.7904  -0.5553  -0.1550   2.5522
     2.8477   2.8477   3.2533   3.2533   3.3059   3.8429   3.8429   4.1737
     4.5244   4.5244   4.5602   4.7416   4.7979   4.8323   5.5839   5.8584
     6.8724   6.9111   6.9111   7.5704   7.5704   7.6310   7.8808   8.0552
     8.1764   8.1764   8.5615   8.7476   8.9290   9.2612   9.2770   9.2770
[...]
     0.0000   0.0000   0.0000   0.0000   0.0000   0.0000   0.0000   0.0000
     0.0000   0.0000   0.0000   0.0000   0.0000   0.0000   0.0000   0.0000
     0.0000

          k = 0.0000-0.3510 0.5266 ( 11244 PWs)   bands (ev):

    -4.9799  -4.4747  -4.4747  -3.9650  -3.0665  -2.8392  -2.8392  -2.4755
    -0.8769  -0.6336  -0.6335  -0.2149   0.8957   1.3664   1.3664   1.6926
     2.0849   2.0849   2.2041   2.5060   2.9432   3.3057   3.5549   3.5549
     3.6260   3.6730   3.6730   3.8224   3.8720   4.5218   4.5218   5.2718
     7.7858   8.1272   8.2820   8.2820   8.7944   8.9066   8.9066   9.1415
     9.2418   9.2619   9.7139   9.8155   9.8155   9.8572   9.8572  10.2648
    10.2677  10.4850  10.4850  10.7723  10.9673  11.0203  11.0203  11.3327
    11.9598  11.9598  12.1245  12.6326  12.6423  12.7312  12.9437  12.9437
    13.0631

     occupation numbers 
     1.0000   1.0000   1.0000   1.0000   1.0000   1.0000   1.0000   1.0000
     1.0000   1.0000   1.0000   1.0000   1.0000   1.0000   1.0000   1.0000
     1.0000   1.0000   1.0000   1.0000   1.0000   1.0000   1.0000   1.0000
     1.0000   1.0000   1.0000   1.0000   1.0000   1.0000   1.0000   1.0000
     0.0000   0.0000   0.0000   0.0000   0.0000   0.0000   0.0000   0.0000
     0.0000   0.0000   0.0000   0.0000   0.0000   0.0000   0.0000   0.0000
     0.0000   0.0000   0.0000   0.0000   0.0000   0.0000   0.0000   0.0000
     0.0000   0.0000   0.0000   0.0000   0.0000   0.0000   0.0000   0.0000
     0.0000

          k =-0.0878-0.5266 0.7021 ( 11252 PWs)   bands (ev):

    -4.9571  -4.4368  -4.2222  -4.2222  -3.3382  -3.3382  -2.2817  -2.1131
    -1.1602  -0.9812  -0.0828  -0.0828   1.0150   1.0150   1.7290   1.8726
     2.0174   2.0906   2.0906   2.7072   2.7084   2.8395   2.8935   2.8935
     3.6553   4.0083   4.1078   4.1879   4.1879   4.5971   4.7727   4.7727
     7.3472   7.7099   8.4126   8.4126   8.9153   8.9206   8.9720   8.9720
     9.4913   9.4913   9.7290   9.7452   9.9027  10.4421  10.4421  10.5140
    10.6648  10.7383  10.9558  10.9558  11.0522  11.2305  11.2305  11.4630
    11.5542  11.5700  11.7962  11.7962  12.1395  12.1395  12.1657  12.5036
    13.1467

     occupation numbers 
     1.0000   1.0000   1.0000   1.0000   1.0000   1.0000   1.0000   1.0000
     1.0000   1.0000   1.0000   1.0000   1.0000   1.0000   1.0000   1.0000
     1.0000   1.0000   1.0000   1.0000   1.0000   1.0000   1.0000   1.0000
     1.0000   1.0000   1.0000   1.0000   1.0000   1.0000   1.0000   1.0000
     0.0000   0.0000   0.0000   0.0000   0.0000   0.0000   0.0000   0.0000
     0.0000   0.0000   0.0000   0.0000   0.0000   0.0000   0.0000   0.0000
     0.0000   0.0000   0.0000   0.0000   0.0000   0.0000   0.0000   0.0000
     0.0000   0.0000   0.0000   0.0000   0.0000   0.0000   0.0000   0.0000
     0.0000

          k =-0.0439-0.4827 0.6582 ( 11240 PWs)   bands (ev):

    -4.8001  -4.5410  -4.4355  -4.1891  -3.2966  -3.1116  -2.4019  -2.3041
    -0.9820  -0.8766  -0.2702  -0.0550   1.0679   1.4147   1.8481   1.8564
     1.8846   1.9332   2.0484   2.3160   2.8294   2.8954   2.9698   3.0493
     3.6502   3.8843   3.9766   4.0334   4.1980   4.5127   4.5640   4.9123
     7.6273   7.8093   8.2426   8.7439   9.0500   9.0903   9.1571   9.2729
     9.3495   9.3537   9.6603   9.6701  10.0039  10.1968  10.5694  10.6296
    10.6497  10.6915  10.8582  10.8866  11.0000  11.0395  11.2034  11.2592
    11.3484  11.5180  11.7633  11.8133  11.9007  12.4258  12.5391  12.6298
    12.9217

     occupation numbers 
     1.0000   1.0000   1.0000   1.0000   1.0000   1.0000   1.0000   1.0000
     1.0000   1.0000   1.0000   1.0000   1.0000   1.0000   1.0000   1.0000
     1.0000   1.0000   1.0000   1.0000   1.0000   1.0000   1.0000   1.0000
     1.0000   1.0000   1.0000   1.0000   1.0000   1.0000   1.0000   1.0000
     0.0000   0.0000   0.0000   0.0000   0.0000   0.0000   0.0000   0.0000
     0.0000   0.0000   0.0000   0.0000   0.0000   0.0000   0.0000   0.0000
     0.0000   0.0000   0.0000   0.0000   0.0000   0.0000   0.0000   0.0000
     0.0000   0.0000   0.0000   0.0000   0.0000   0.0000   0.0000   0.0000
     0.0000

          k = 0.0000-0.4388 0.6143 ( 11240 PWs)   bands (ev):

    -4.6320  -4.6218  -4.6218  -4.1330  -3.2371  -2.8866  -2.5187  -2.5187
    -0.8015  -0.8015  -0.4805  -0.0769   1.0510   1.7648   1.7839   1.8927
     1.8927   1.8933   1.8933   2.0724   2.8392   3.1270   3.1270   3.2746
     3.6937   3.6937   3.7431   3.8884   4.3269   4.4095   4.4095   5.0447
     7.9295   7.9295   8.0808   8.8291   9.1484   9.1622   9.1917   9.1956
     9.1956   9.6782   9.6782   9.7547   9.8771  10.0922  10.1563  10.1563
    10.5527  10.5527  10.6738  10.6980  10.9006  11.2642  11.3013  11.3013
    11.4028  11.4028  11.9259  12.0820  12.3722  12.3722  12.7085  12.8122
    13.0724

     occupation numbers 
     1.0000   1.0000   1.0000   1.0000   1.0000   1.0000   1.0000   1.0000
     1.0000   1.0000   1.0000   1.0000   1.0000   1.0000   1.0000   1.0000
     1.0000   1.0000   1.0000   1.0000   1.0000   1.0000   1.0000   1.0000
     1.0000   1.0000   1.0000   1.0000   1.0000   1.0000   1.0000   1.0000
     0.0000   0.0000   0.0000   0.0000   0.0000   0.0000   0.0000   0.0000
     0.0000   0.0000   0.0000   0.0000   0.0000   0.0000   0.0000   0.0000
     0.0000   0.0000   0.0000   0.0000   0.0000   0.0000   0.0000   0.0000
     0.0000   0.0000   0.0000   0.0000   0.0000   0.0000   0.0000   0.0000
     0.0000

          k =-0.7021 0.1755 0.0000 ( 11254 PWs)   bands (ev):

    -4.7122  -4.7122  -4.2345  -4.2345  -3.3400  -3.3400  -2.1946  -2.1946
    -1.0654  -1.0654  -0.0144  -0.0144   1.1203   1.1203   1.9159   1.9159
     1.9910   1.9910   2.2233   2.2233   2.7518   2.7518   2.7716   2.7716
     3.8689   3.8689   4.1771   4.1771   4.2890   4.2890   4.7741   4.7741
     7.5171   7.5171   8.4013   8.4013   9.0033   9.0033   9.3357   9.3357
     9.5600   9.5600   9.5794   9.5794  10.4144  10.4144  10.6499  10.6499
    10.8546  10.8546  10.9820  10.9820  11.0782  11.0782  11.1786  11.1786
    11.6026  11.6026  11.6028  11.6028  11.7817  11.7817  12.2968  12.2968
    12.9798

     occupation numbers 
     1.0000   1.0000   1.0000   1.0000   1.0000   1.0000   1.0000   1.0000
     1.0000   1.0000   1.0000   1.0000   1.0000   1.0000   1.0000   1.0000
     1.0000   1.0000   1.0000   1.0000   1.0000   1.0000   1.0000   1.0000
     1.0000   1.0000   1.0000   1.0000   1.0000   1.0000   1.0000   1.0000
     0.0000   0.0000   0.0000   0.0000   0.0000   0.0000   0.0000   0.0000
     0.0000   0.0000   0.0000   0.0000   0.0000   0.0000   0.0000   0.0000
     0.0000   0.0000   0.0000   0.0000   0.0000   0.0000   0.0000   0.0000
     0.0000   0.0000   0.0000   0.0000   0.0000   0.0000   0.0000   0.0000
     0.0000

          k =-0.1755-0.4388 0.7021 ( 11245 PWs)   bands (ev):

    -5.0909  -4.3435  -4.3435  -4.0617  -3.0870  -3.0870  -2.7246  -2.2547
    -1.0711  -0.5591  -0.4522  -0.4522   1.0625   1.0625   1.0812   1.7606
     2.1637   2.2026   2.2026   2.8531   2.9867   3.2188   3.3011   3.4348
     3.4348   3.8064   3.8924   3.8924   4.1094   4.6725   4.6725   5.1251
     7.6205   8.0000   8.3168   8.6331   8.6331   8.6627   8.6627   8.8308
     9.0958   9.4622   9.4622   9.5260   9.5602   9.9278   9.9278  10.4065
    10.6724  10.6949  10.7568  10.7759  10.7759  11.0691  11.0691  11.4305
    12.0733  12.0733  12.0809  12.3724  12.3724  12.4759  12.6932  12.9975
    13.6431

     occupation numbers 
     1.0000   1.0000   1.0000   1.0000   1.0000   1.0000   1.0000   1.0000
     1.0000   1.0000   1.0000   1.0000   1.0000   1.0000   1.0000   1.0000
     1.0000   1.0000   1.0000   1.0000   1.0000   1.0000   1.0000   1.0000
     1.0000   1.0000   1.0000   1.0000   1.0000   1.0000   1.0000   1.0000
     0.0000   0.0000   0.0000   0.0000   0.0000   0.0000   0.0000   0.0000
     0.0000   0.0000   0.0000   0.0000   0.0000   0.0000   0.0000   0.0000
     0.0000   0.0000   0.0000   0.0000   0.0000   0.0000   0.0000   0.0000
     0.0000   0.0000   0.0000   0.0000   0.0000   0.0000   0.0000   0.0000
     0.0000

          k =-0.1316-0.3949 0.6582 ( 11239 PWs)   bands (ev):

    -4.9340  -4.5581  -4.3078  -4.1667  -3.0178  -2.8738  -2.8368  -2.4435
    -0.8948  -0.5722  -0.4601  -0.4109   1.1736   1.1927   1.5259   1.7427
     1.9651   2.0854   2.0971   2.4416   3.1722   3.1804   3.2848   3.4252
     3.5426   3.6478   3.7250   3.8676   3.9962   4.4452   4.7953   5.0321
     7.9182   8.1356   8.4432   8.4572   8.4629   8.6323   9.0330   9.2380
     9.3512   9.5147   9.5558   9.7407   9.8449   9.8746  10.2757  10.3413
    10.4170  10.5828  10.6481  10.6664  10.8840  10.9081  11.2224  11.3756
    11.4220  11.7759  12.1236  12.3010  12.3172  12.7864  12.9322  13.0502
    13.1400

     occupation numbers 
     1.0000   1.0000   1.0000   1.0000   1.0000   1.0000   1.0000   1.0000
     1.0000   1.0000   1.0000   1.0000   1.0000   1.0000   1.0000   1.0000
     1.0000   1.0000   1.0000   1.0000   1.0000   1.0000   1.0000   1.0000
     1.0000   1.0000   1.0000   1.0000   1.0000   1.0000   1.0000   1.0000
     0.0000   0.0000   0.0000   0.0000   0.0000   0.0000   0.0000   0.0000
     0.0000   0.0000   0.0000   0.0000   0.0000   0.0000   0.0000   0.0000
     0.0000   0.0000   0.0000   0.0000   0.0000   0.0000   0.0000   0.0000
     0.0000   0.0000   0.0000   0.0000   0.0000   0.0000   0.0000   0.0000
     0.0000

          k =-0.0878-0.3510 0.6143 ( 11256 PWs)   bands (ev):

    -4.7558  -4.7558  -4.2488  -4.2488  -2.9345  -2.9345  -2.6564  -2.6564
    -0.7209  -0.7209  -0.4103  -0.4103   1.2235   1.2235   1.8097   1.8097
     1.9916   1.9916   2.0574   2.0574   3.1965   3.1965   3.4005   3.4005
     3.5676   3.5676   3.6833   3.6833   4.2141   4.2142   4.9183   4.9183
     8.2036   8.2036   8.2892   8.2892   8.5583   8.5583   9.4617   9.4617
     9.5415   9.5415   9.5861   9.5861   9.7273   9.7273  10.3701  10.3701
    10.5965  10.5965  10.7543  10.7543  10.7820  10.7820  10.9213  10.9213
    11.8626  11.8626  12.0784  12.0784  12.3486  12.3486  13.3199  13.3199
    13.4609

     occupation numbers 
     1.0000   1.0000   1.0000   1.0000   1.0000   1.0000   1.0000   1.0000
     1.0000   1.0000   1.0000   1.0000   1.0000   1.0000   1.0000   1.0000
     1.0000   1.0000   1.0000   1.0000   1.0000   1.0000   1.0000   1.0000
     1.0000   1.0000   1.0000   1.0000   1.0000   1.0000   1.0000   1.0000
     0.0000   0.0000   0.0000   0.0000   0.0000   0.0000   0.0000   0.0000
     0.0000   0.0000   0.0000   0.0000   0.0000   0.0000   0.0000   0.0000
     0.0000   0.0000   0.0000   0.0000   0.0000   0.0000   0.0000   0.0000
     0.0000   0.0000   0.0000   0.0000   0.0000   0.0000   0.0000   0.0000
     0.0000

          k =-0.0878-0.4388 0.7021 ( 11248 PWs)   bands (ev):

    -4.8791  -4.3833  -4.3833  -4.3636  -3.0718  -3.0718  -2.6098  -2.3699
    -0.9359  -0.6740  -0.3297  -0.3297   1.3123   1.3123   1.5375   1.7773
     1.9793   1.9793   1.9856   2.4222   3.0177   3.1570   3.1570   3.1888
     3.4005   3.8425   3.8425   3.8488   4.1059   4.6935   4.6935   4.7795
     7.7612   8.1147   8.5603   8.5936   8.5936   8.8765   8.8765   9.2058
     9.4593   9.4593   9.7621   9.7779   9.7949  10.3280  10.3280  10.3596
    10.4008  10.6060  10.6060  10.9566  10.9803  11.0431  11.1868  11.1868
    11.6252  11.6252  11.7080  11.7499  12.1039  12.7727  12.7727  13.0971
    13.4674

     occupation numbers 
     1.0000   1.0000   1.0000   1.0000   1.0000   1.0000   1.0000   1.0000
     1.0000   1.0000   1.0000   1.0000   1.0000   1.0000   1.0000   1.0000
     1.0000   1.0000   1.0000   1.0000   1.0000   1.0000   1.0000   1.0000
     1.0000   1.0000   1.0000   1.0000   1.0000   1.0000   1.0000   1.0000
     0.0000   0.0000   0.0000   0.0000   0.0000   0.0000   0.0000   0.0000
     0.0000   0.0000   0.0000   0.0000   0.0000   0.0000   0.0000   0.0000
     0.0000   0.0000   0.0000   0.0000   0.0000   0.0000   0.0000   0.0000
     0.0000   0.0000   0.0000   0.0000   0.0000   0.0000   0.0000   0.0000
     0.0000

          k =-0.0439-0.3949 0.6582 ( 11247 PWs)   bands (ev):

    -4.7081  -4.5863  -4.4520  -4.3343  -3.0083  -2.8465  -2.7082  -2.5752
    -0.7488  -0.6017  -0.5123  -0.3289   1.3478   1.6159   1.7260   1.8059
     1.8193   1.9226   1.9621   2.0313   3.1030   3.2341   3.3241   3.3284
     3.3833   3.6019   3.6133   3.6883   4.3289   4.4571   4.6804   4.8226
     8.0746   8.2516   8.4268   8.5947   8.7035   8.7619   9.0059   9.3270
     9.5155   9.6004   9.8026   9.8194  10.0356  10.1051  10.1261  10.3061
    10.4851  10.5102  10.7223  10.7993  10.8102  10.9847  11.0386  11.1584
    11.5136  11.6306  11.6943  11.7314  12.3010  12.8604  13.0233  13.2972
    13.3079

     occupation numbers 
     1.0000   1.0000   1.0000   1.0000   1.0000   1.0000   1.0000   1.0000
     1.0000   1.0000   1.0000   1.0000   1.0000   1.0000   1.0000   1.0000
     1.0000   1.0000   1.0000   1.0000   1.0000   1.0000   1.0000   1.0000
     1.0000   1.0000   1.0000   1.0000   1.0000   1.0000   1.0000   1.0000
     0.0000   0.0000   0.0000   0.0000   0.0000   0.0000   0.0000   0.0000
     0.0000   0.0000   0.0000   0.0000   0.0000   0.0000   0.0000   0.0000
     0.0000   0.0000   0.0000   0.0000   0.0000   0.0000   0.0000   0.0000
     0.0000   0.0000   0.0000   0.0000   0.0000   0.0000   0.0000   0.0000
     0.0000

          k =-0.0000-0.3510 0.6143 ( 11246 PWs)   bands (ev):

    -4.7706  -4.5169  -4.5169  -4.2621  -2.9298  -2.7962  -2.7962  -2.6294
    -0.7105  -0.5685  -0.5685  -0.3736   1.3057   1.6089   1.6089   1.7425
     1.9124   1.9124   2.0051   2.1081   3.1197   3.3677   3.4290   3.4290
     3.4788   3.4788   3.5479   3.5625   4.2168   4.5647   4.5647   4.9397
     8.2641   8.2728   8.3769   8.3769   8.6036   8.8624   8.8624   9.4725
     9.5500   9.5913   9.8067   9.8459   9.8459  10.2310  10.2310  10.2488
    10.2488  10.3785  10.4687  10.5325  10.8349  11.1779  11.2996  11.2996
    11.4475  11.4475  11.8795  12.0224  12.2510  12.9599  12.9599  13.1852
    13.4990

     occupation numbers 
     1.0000   1.0000   1.0000   1.0000   1.0000   1.0000   1.0000   1.0000
     1.0000   1.0000   1.0000   1.0000   1.0000   1.0000   1.0000   1.0000
     1.0000   1.0000   1.0000   1.0000   1.0000   1.0000   1.0000   1.0000
     1.0000   1.0000   1.0000   1.0000   1.0000   1.0000   1.0000   1.0000
     0.0000   0.0000   0.0000   0.0000   0.0000   0.0000   0.0000   0.0000
     0.0000   0.0000   0.0000   0.0000   0.0000   0.0000   0.0000   0.0000
     0.0000   0.0000   0.0000   0.0000   0.0000   0.0000   0.0000   0.0000
     0.0000   0.0000   0.0000   0.0000   0.0000   0.0000   0.0000   0.0000
     0.0000

          k =-0.7021 0.2633 0.0000 ( 11258 PWs)   bands (ev):

    -4.6364  -4.6364  -4.3967  -4.3967  -3.0675  -3.0675  -2.4899  -2.4899
    -0.8016  -0.8016  -0.2797  -0.2797   1.4170   1.4170   1.8542   1.8542
     1.8957   1.8957   1.9842   1.9842   3.0420   3.0420   3.0886   3.0886
     3.6113   3.6113   3.8260   3.8260   4.4341   4.4341   4.7001   4.7001
     7.9275   7.9275   8.5799   8.5799   8.9812   8.9812   9.1811   9.1811
     9.4440   9.4440   9.5893   9.5893  10.4484  10.4484  10.4812  10.4812
    10.5654  10.5654  10.5775  10.5775  10.9778  10.9778  11.3037  11.3037
    11.3580  11.3580  11.5239  11.5239  12.3509  12.3509  12.9819  12.9819
    13.3474

     occupation numbers 
     1.0000   1.0000   1.0000   1.0000   1.0000   1.0000   1.0000   1.0000
     1.0000   1.0000   1.0000   1.0000   1.0000   1.0000   1.0000   1.0000
     1.0000   1.0000   1.0000   1.0000   1.0000   1.0000   1.0000   1.0000
     1.0000   1.0000   1.0000   1.0000   1.0000   1.0000   1.0000   1.0000
     0.0000   0.0000   0.0000   0.0000   0.0000   0.0000   0.0000   0.0000
     0.0000   0.0000   0.0000   0.0000   0.0000   0.0000   0.0000   0.0000
     0.0000   0.0000   0.0000   0.0000   0.0000   0.0000   0.0000   0.0000
     0.0000   0.0000   0.0000   0.0000   0.0000   0.0000   0.0000   0.0000
     0.0000

          k =-0.7021 0.3510 0.0000 ( 11180 PWs)   bands (ev):

    -4.5310  -4.5310  -4.5310  -4.5310  -2.7826  -2.7826  -2.7826  -2.7825
    -0.5409  -0.5409  -0.5409  -0.5409   1.7089   1.7089   1.7089   1.7089
     1.8488   1.8488   1.8488   1.8488   3.3271   3.3271   3.3271   3.3271
     3.4537   3.4537   3.4537   3.4537   4.5790   4.5790   4.5790   4.5790
     8.4246   8.4246   8.4246   8.4246   8.8475   8.8475   8.8475   8.8475
     9.8034   9.8034   9.8034   9.8034  10.1899  10.1899  10.1899  10.1899
    10.4975  10.4975  10.4976  10.4976  11.1481  11.1481  11.1481  11.1481
    11.4218  11.4218  11.4218  11.4218  12.9455  12.9455  12.9455  12.9455
    13.6968

     occupation numbers 
     1.0000   1.0000   1.0000   1.0000   1.0000   1.0000   1.0000   1.0000
     1.0000   1.0000   1.0000   1.0000   1.0000   1.0000   1.0000   1.0000
     1.0000   1.0000   1.0000   1.0000   1.0000   1.0000   1.0000   1.0000
     1.0000   1.0000   1.0000   1.0000   1.0000   1.0000   1.0000   1.0000
     0.0000   0.0000   0.0000   0.0000   0.0000   0.0000   0.0000   0.0000
     0.0000   0.0000   0.0000   0.0000   0.0000   0.0000   0.0000   0.0000
     0.0000   0.0000   0.0000   0.0000   0.0000   0.0000   0.0000   0.0000
     0.0000   0.0000   0.0000   0.0000   0.0000   0.0000   0.0000   0.0000
     0.0000

     the Fermi energy is     5.9811 ev

     Writing output data file si.save/

     init_run     :      0.50s CPU      0.53s WALL (       1 calls)
     electrons    :   1037.26s CPU   1057.62s WALL (       1 calls)

     Called by init_run:
     wfcinit      :      0.00s CPU      0.00s WALL (       1 calls)
     wfcinit:atom :      0.20s CPU      0.21s WALL (     145 calls)
     wfcinit:wfcr :     27.94s CPU     28.92s WALL (     145 calls)
     potinit      :      0.04s CPU      0.04s WALL (       1 calls)
     hinit0       :      0.24s CPU      0.24s WALL (       1 calls)

     Called by electrons:
     c_bands      :   1036.24s CPU   1056.59s WALL (       1 calls)
     v_of_rho     :      0.04s CPU      0.04s WALL (       1 calls)
     v_h          :      0.00s CPU      0.00s WALL (       1 calls)
     v_xc         :      0.04s CPU      0.04s WALL (       1 calls)
     newd         :      0.06s CPU      0.09s WALL (       1 calls)

     Called by c_bands:
     init_us_2    :      0.43s CPU      0.58s WALL (     145 calls)
     cegterg      :   1003.42s CPU   1022.53s WALL (     403 calls)

     Called by sum_band:

     Called by *egterg:
     h_psi        :    443.60s CPU    461.81s WALL (    7355 calls)
     s_psi        :     95.27s CPU     95.27s WALL (    7355 calls)
     g_psi        :      3.28s CPU      3.47s WALL (    6807 calls)
     cdiaghg      :    228.86s CPU    229.20s WALL (    6952 calls)
     cegterg:over :    106.50s CPU    107.94s WALL (    6807 calls)
     cegterg:upda :     79.22s CPU     79.25s WALL (    6807 calls)
     cegterg:last :     57.63s CPU     57.61s WALL (    1083 calls)

     Called by h_psi:
     h_psi:pot    :    441.49s CPU    459.69s WALL (    7355 calls)
     h_psi:calbec :     94.95s CPU     97.08s WALL (    7355 calls)
     vloc_psi     :    249.00s CPU    264.99s WALL (    7355 calls)
     add_vuspsi   :     97.45s CPU     97.58s WALL (    7355 calls)

     General routines
     calbec       :     94.91s CPU     97.05s WALL (    7355 calls)
     fft          :      0.02s CPU      0.02s WALL (      12 calls)
     fftw         :    213.07s CPU    226.99s WALL (  404710 calls)
     davcio       :      0.26s CPU      0.39s WALL (     290 calls)

     Parallel routines
     fft_scatt_xy :     39.28s CPU     41.24s WALL (  404722 calls)
     fft_scatt_yz :     62.59s CPU     67.46s WALL (  404722 calls)

     PWSCF        :  17m20.19s CPU  17m42.46s WALL


   This run was terminated on:  17:11:16  13Aug2019            

=------------------------------------------------------------------------------=
   JOB DONE.
=------------------------------------------------------------------------------=
